LAMMPS data file via write_data, version 17 Nov 2016, timestep = 500000

4896 atoms
4 atom types
3264 bonds
2 bond types
1632 angles
2 angle types

 
-6.0000000000000000e+01 6.0000000000000000e+01 xlo xhi
-2.0000000000000000e+01 2.0000000000000000e+01 ylo yhi
-0.75000000000000e+01 3.0000000000000000e+01 zlo zhi

Bond Coeffs

1 1000 1.0
2 1000 1.149

Angle Coeffs

1 1000 109.47
2 147.70554 180.0

Masses

1 15.9994
2 1.008
3 12.0107
4 15.9994

Atoms

3790 1264 3 0.6512 -56.4724 -18.0658 1.0497 0 13 0
3792 1264 4 -0.3256 -55.3753 -17.7243 1.05884 0 13 0
3532 1178 3 0.6512 -55.8464 -14.7571 1.09399 3 9 0
3533 1178 4 -0.3256 -56.9635 -14.9864 0.953981 3 9 0
3791 1264 4 -0.3256 -57.5488 -18.4677 1.05944 0 13 0
3534 1178 4 -0.3256 -54.7196 -14.5457 1.17119 3 9 0
3971 1324 4 -0.3256 -50.5578 19.0138 0.942271 -1 5 0
4069 1357 3 0.6512 -45.6677 -16.59 0.829373 3 -25 0
4071 1357 4 -0.3256 -44.9272 -17.4679 0.863298 3 -25 0
4070 1357 4 -0.3256 -46.3426 -15.6608 0.792785 3 -25 0
3740 1247 4 -0.3256 -44.8658 -13.8066 2.82608 0 4 0
3739 1247 3 0.6512 -45.601 -13.5012 3.65461 0 4 0
4166 1389 4 -0.3256 -42.4544 -15.49 0.788202 2 -32 0
4165 1389 3 0.6512 -41.7423 -16.083 1.46752 2 -32 0
4167 1389 4 -0.3256 -41.0667 -16.7265 2.13805 2 -32 0
4486 1496 3 0.6512 -38.2875 -18.9196 1.38076 -2 17 0
4488 1496 4 -0.3256 -38.216 -17.8852 0.885702 -2 17 0
4487 1496 4 -0.3256 -38.4071 -19.9214 1.93053 -2 17 0
4187 1396 4 -0.3256 -33.3851 -16.8904 0.58531 -2 19 0
4188 1396 4 -0.3256 -35.2446 -17.9775 1.38488 -2 19 0
4186 1396 3 0.6512 -34.323 -17.4317 0.969062 -2 19 0
4089 1363 4 -0.3256 -33.9116 18.9781 1.67031 2 -5 0
4313 1438 4 -0.3256 -31.7394 16.1616 1.12517 0 13 0
4312 1438 3 0.6512 -31.094 17.1121 1.13872 0 13 0
3515 1172 4 -0.3256 -35.6991 -18.2841 4.86337 -2 6 0
4778 1593 4 -0.3256 -29.7476 -17.6001 2.80759 0 13 0
4777 1593 3 0.6512 -29.021 -16.9193 2.23431 0 13 0
4779 1593 4 -0.3256 -28.3155 -16.1926 1.69165 0 13 0
3554 1185 4 -0.3256 -21.3125 -16.816 1.17657 2 20 0
4198 1400 3 0.6512 -25.4 -14.5901 0.932856 1 12 0
4314 1438 4 -0.3256 -30.3876 18.0182 1.15404 0 13 0
3553 1185 3 0.6512 -22.2282 -17.5064 1.24763 2 20 0
3555 1185 4 -0.3256 -23.16 -18.167 1.37259 2 20 0
69 23 2 0.4238 -20.7132 -16.3426 3.37241 0 -1 0
67 23 1 -0.8476 -20.3111 -15.6165 3.93019 0 -1 0
3335 1112 2 0.4238 -19.0144 -14.1179 3.69369 0 -9 0
4200 1400 4 -0.3256 -25.7076 -13.4842 0.883251 1 12 0
1186 396 1 -0.8476 -21.1234 -18.5538 3.58368 0 -6 0
1187 396 2 0.4238 -21.9327 -18.2783 4.10248 0 -6 0
923 308 2 0.4238 -21.7105 -14.2328 4.05335 0 -1 0
922 308 1 -0.8476 -22.6055 -13.8002 3.94481 0 -1 0
924 308 2 0.4238 -22.4855 -12.8187 3.79581 0 -1 0
68 23 2 0.4238 -19.8612 -16.019 4.72743 0 -1 0
3336 1112 2 0.4238 -17.8005 -13.6652 2.69973 0 -9 0
1188 396 2 0.4238 -20.8901 -19.5001 3.80775 0 -6 0
1605 535 2 0.4238 -17.834 -17.3237 1.85373 1 2 0
1603 535 1 -0.8476 -17.08 -16.7498 1.53391 1 2 0
1604 535 2 0.4238 -17.4092 -15.8166 1.39005 1 2 0
398 133 2 0.4238 -15.3036 -18.2006 5.55295 0 1 0
762 254 2 0.4238 -19.3616 -18.606 1.03046 0 8 0
761 254 2 0.4238 -19.6799 -18.6086 2.63212 0 8 0
760 254 1 -0.8476 -18.9809 -18.433 1.93885 0 8 0
3317 1106 2 0.4238 -16.5952 -19.987 4.3194 0 2 0
3318 1106 2 0.4238 -17.6832 -19.5771 3.17273 0 2 0
2995 999 1 -0.8476 -19.2215 -16.2265 6.54242 0 -8 0
2046 682 2 0.4238 -12.8378 -17.4995 1.81507 0 0 0
2044 682 1 -0.8476 -12.0746 -18.1077 1.59659 0 0 0
2598 866 2 0.4238 -13.2014 -13.0933 4.33847 0 -5 0
2045 682 2 0.4238 -12.4287 -18.9695 1.23337 0 0 0
2597 866 2 0.4238 -13.144 -14.5644 3.63187 0 -5 0
2906 969 2 0.4238 -15.3431 -16.6012 1.57748 0 -6 0
2907 969 2 0.4238 -14.5931 -17.2153 2.89168 0 -6 0
2596 866 1 -0.8476 -13.3636 -14.0708 4.47338 0 -5 0
849 283 2 0.4238 -10.8486 -16.9563 1.36324 -1 1 0
847 283 1 -0.8476 -10.5358 -16.0286 1.15929 -1 1 0
848 283 2 0.4238 -11.3233 -15.4141 1.11202 -1 1 0
907 303 1 -0.8476 -7.46728 -17.7554 3.23143 0 -1 0
908 303 2 0.4238 -7.5878 -17.0796 2.50423 0 -1 0
2905 969 1 -0.8476 -14.4856 -16.6253 2.09143 0 -6 0
861 287 2 0.4238 -8.67049 -16.013 0.869772 0 -2 0
2348 783 2 0.4238 -10.8198 -13.7494 1.56522 0 -4 0
176 59 2 0.4238 -12.2894 -17.3712 4.41056 0 1 0
175 59 1 -0.8476 -11.9435 -18.1717 4.90002 0 1 0
909 303 2 0.4238 -6.49612 -17.8327 3.45698 0 -1 0
2550 850 2 0.4238 -5.14114 -17.2197 0.103667 0 -3 0
2548 850 1 -0.8476 -5.1609 -16.7304 0.97561 0 -3 0
1527 509 2 0.4238 -3.51979 -15.072 0.560935 0 -2 0
859 287 1 -0.8476 -7.70504 -16.1403 1.09716 0 -2 0
2549 850 2 0.4238 -6.10991 -16.5937 1.25963 0 -3 0
860 287 2 0.4238 -7.36825 -15.3344 1.58417 0 -2 0
194 65 2 0.4238 -4.39212 -15.7463 4.00683 0 -4 0
2106 702 2 0.4238 -5.05911 -19.6474 4.37921 0 -1 0
195 65 2 0.4238 -4.26725 -17.155 4.82322 0 -4 0
2104 702 1 -0.8476 -4.888 -18.7074 4.08391 0 -1 0
2105 702 2 0.4238 -4.04143 -18.6738 3.5527 0 -1 0
193 65 1 -0.8476 -3.89224 -16.2334 4.72294 0 -4 0
661 221 1 -0.8476 -6.48313 -13.8855 2.33544 0 -1 0
89 30 2 0.4238 -3.27573 -12.9381 1.43292 0 -4 0
662 221 2 0.4238 -6.01702 -13.7509 3.20987 0 -1 0
1525 509 1 -0.8476 -2.57146 -14.9077 0.832493 0 -2 0
1526 509 2 0.4238 -2.14278 -15.7745 1.08717 0 -2 0
2885 962 2 0.4238 0.210643 -13.1924 2.35737 0 -2 0
2884 962 1 -0.8476 -0.78399 -13.0956 2.39384 0 -2 0
3001 1001 1 -0.8476 -0.500501 -16.7175 1.50541 0 0 0
3003 1001 2 0.4238 -0.606367 -16.5049 2.47684 0 0 0
3002 1001 2 0.4238 0.443063 -16.9959 1.32605 0 0 0
2886 962 2 0.4238 -1.20741 -13.7784 1.79855 0 -2 0
1064 355 2 0.4238 -2.19264 -16.5149 4.50882 0 -1 0
1063 355 1 -0.8476 -1.20813 -16.4386 4.35095 0 -1 0
1065 355 2 0.4238 -0.872077 -15.5846 4.74813 0 -1 0
365 122 2 0.4238 -0.368465 19.9542 5.12009 0 2 0
209 70 2 0.4238 -2.54245 -18.0302 2.14609 0 -3 0
2426 809 2 0.4238 3.14286 -17.451 1.37779 0 1 0
2425 809 1 -0.8476 2.20424 -17.7312 1.57904 0 1 0
2427 809 2 0.4238 2.21631 -18.519 2.19489 0 1 0
3289 1097 1 -0.8476 2.78052 -14.9482 3.89888 0 -8 0
2737 913 1 -0.8476 2.22148 -19.7685 3.45793 0 -1 0
2738 913 2 0.4238 1.53444 -19.4233 4.09731 0 -1 0
2739 913 2 0.4238 2.96442 19.7987 3.96859 0 -2 0
3714 1238 4 -0.3256 7.65854 -19.1681 1.36012 0 18 0
3712 1238 3 0.6512 6.58684 -19.0614 1.76048 0 18 0
3713 1238 4 -0.3256 5.52445 -18.9145 2.1727 0 18 0
3699 1233 4 -0.3256 9.54068 -18.0716 3.84984 0 2 0
4310 1437 4 -0.3256 8.78062 -14.6115 4.02977 -2 10 0
3698 1233 4 -0.3256 11.1722 -19.6542 3.53704 0 2 0
3697 1233 3 0.6512 10.3112 -18.9094 3.69293 0 2 0
4738 1580 3 0.6512 9.11781 -14.4233 1.07433 -1 8 0
4740 1580 4 -0.3256 8.1988 -15.0371 0.759909 -1 8 0
4048 1350 3 0.6512 13.1218 -16.5703 1.4799 -1 -6 0
4049 1350 4 -0.3256 12.2246 -17.2015 1.82164 -1 -6 0
4050 1350 4 -0.3256 14.0262 -15.975 1.09519 -1 -6 0
3943 1315 3 0.6512 16.7145 -14.1632 3.39748 -1 22 0
3944 1315 4 -0.3256 17.0394 -14.9351 2.61075 -1 22 0
3945 1315 4 -0.3256 16.393 -13.3207 4.10944 -1 22 0
3495 1165 4 -0.3256 24.4437 19.5817 1.07682 -2 13 0
3493 1165 3 0.6512 23.8344 19.1096 1.92888 -2 13 0
4853 1618 4 -0.3256 22.6579 -16.9646 1.27658 0 9 0
4854 1618 4 -0.3256 20.5214 -16.1492 1.50246 0 9 0
4852 1618 3 0.6512 21.5882 -16.5585 1.38163 0 9 0
4504 1502 3 0.6512 33.1466 -18.3203 1.53285 -1 -6 0
4670 1557 4 -0.3256 29.2961 17.6316 0.979619 1 1 0
4506 1502 4 -0.3256 32.8017 -17.2631 1.24387 -1 -6 0
4303 1435 3 0.6512 37.2694 19.6483 1.09456 -2 -15 0
4304 1435 4 -0.3256 36.8121 -19.3176 0.890715 -2 -14 0
4119 1373 4 -0.3256 35.8675 -18.5073 5.37738 1 1 0
4117 1373 3 0.6512 36.5248 -19.2936 4.85787 1 1 0
4118 1373 4 -0.3256 37.2185 19.95 4.34128 1 0 0
4694 1565 4 -0.3256 35.8741 -16.2149 0.971359 -1 5 0
4693 1565 3 0.6512 36.1284 -15.098 0.880933 -1 5 0
4695 1565 4 -0.3256 36.3758 -13.9787 0.802959 -1 5 0
4305 1435 4 -0.3256 37.7656 18.636 1.31638 -2 -15 0
3870 1290 4 -0.3256 39.3483 -15.9596 0.865356 -4 -8 0
3868 1290 3 0.6512 40.4306 -15.6011 1.00804 -4 -8 0
3869 1290 4 -0.3256 41.5343 -15.2838 1.04331 -4 -8 0
4818 1606 4 -0.3256 42.4104 -11.871 1.29597 0 -5 0
4816 1606 3 0.6512 43.0195 -10.8993 1.36652 0 -5 0
4354 1452 3 0.6512 50.4441 -19.1705 2.16681 -5 0 0
4355 1452 4 -0.3256 51.1823 -19.4813 1.34299 -5 0 0
4356 1452 4 -0.3256 49.7115 -18.883 3.00389 -5 0 0
4711 1571 3 0.6512 52.6335 -14.828 1.1602 0 -16 0
4712 1571 4 -0.3256 52.3103 -15.7697 0.587047 0 -16 0
3640 1214 3 0.6512 54.801 19.4441 1.1526 -3 28 0
4792 1598 3 0.6512 56.692 -14.3978 1.86056 0 4 0
4794 1598 4 -0.3256 56.5295 -15.1384 2.72386 0 4 0
3641 1214 4 -0.3256 54.6832 -19.4191 1.27164 -3 29 0
3773 1258 4 -0.3256 -55.9989 -11.7673 1.00003 2 -23 0
3908 1303 4 -0.3256 59.9764 -13.7093 1.67746 3 -15 0
3909 1303 4 -0.3256 -59.313 -11.527 1.63497 4 -15 0
3907 1303 3 0.6512 -59.7152 -12.6024 1.67657 4 -15 0
3839 1280 4 -0.3256 -58.2117 -10.4661 6.00004 -2 -2 0
3838 1280 3 0.6512 -57.2157 -10.2767 5.45951 -2 -2 0
3772 1258 3 0.6512 -54.9339 -11.3541 1.12287 2 -23 0
3774 1258 4 -0.3256 -53.8619 -10.9845 1.30876 2 -23 0
4009 1337 3 0.6512 -48.9894 -9.79216 4.8794 1 4 0
4011 1337 4 -0.3256 -48.7043 -9.57643 3.78743 1 4 0
4091 1364 4 -0.3256 -44.2794 -11.5235 1.35782 1 -5 0
3560 1187 4 -0.3256 -44.3707 -10.2101 4.24624 0 13 0
3846 1282 4 -0.3256 -39.9288 -13.8056 2.78234 0 8 0
3844 1282 3 0.6512 -39.1446 -14.5502 3.17067 0 8 0
3845 1282 4 -0.3256 -38.3761 -15.317 3.54707 0 8 0
4143 1381 4 -0.3256 -44.2102 -7.00655 1.27912 -2 -15 0
4092 1364 4 -0.3256 -42.0107 -11.6755 1.02879 1 -5 0
4090 1364 3 0.6512 -43.1466 -11.5823 1.17441 1 -5 0
4141 1381 3 0.6512 -45.2628 -6.56938 1.42448 -2 -15 0
4753 1585 3 0.6512 -38.5317 -11.3756 0.942807 3 16 0
4754 1585 4 -0.3256 -38.2396 -12.4547 0.677602 3 16 0
3561 1187 4 -0.3256 -43.1988 -8.32504 3.65552 0 13 0
3559 1187 3 0.6512 -43.7769 -9.26171 3.98527 0 13 0
4270 1424 3 0.6512 -33.5817 -13.0646 1.32434 -2 -3 0
4755 1585 4 -0.3256 -38.8345 -10.3053 1.23086 3 16 0
3958 1320 3 0.6512 -33.2741 -8.83301 2.27607 1 -12 0
3960 1320 4 -0.3256 -34.3801 -8.96847 1.99601 1 -12 0
3959 1320 4 -0.3256 -32.1871 -8.67451 2.61314 1 -12 0
4332 1444 4 -0.3256 -32.9812 -6.58354 4.79616 3 23 0
4272 1424 4 -0.3256 -34.4424 -13.8257 1.31427 -2 -3 0
4271 1424 4 -0.3256 -32.6955 -12.3339 1.35456 -2 -3 0
4757 1586 4 -0.3256 -29.9224 -10.5665 1.95256 -2 4 0
4758 1586 4 -0.3256 -28.8952 -12.5155 1.30395 -2 4 0
4756 1586 3 0.6512 -29.4066 -11.5278 1.59205 -2 4 0
4851 1617 4 -0.3256 -25.1804 -8.24933 0.913659 -2 3 0
4849 1617 3 0.6512 -25.8933 -9.13847 1.05986 -2 3 0
4199 1400 4 -0.3256 -25.1506 -15.7099 0.997477 1 12 0
251 84 2 0.4238 -24.5642 -10.58 3.41692 0 0 0
4723 1575 3 0.6512 -21.1166 -12.546 0.98173 2 7 0
4724 1575 4 -0.3256 -22.0706 -13.1859 0.956824 2 7 0
3573 1191 4 -0.3256 -21.5161 -7.43708 0.820024 -3 12 0
4725 1575 4 -0.3256 -20.1632 -11.9049 0.972196 2 7 0
1305 435 2 0.4238 -23.5134 -8.58854 3.13151 0 3 0
250 84 1 -0.8476 -24.2279 -11.1401 2.65977 0 0 0
252 84 2 0.4238 -24.9921 -11.6353 2.24649 0 0 0
2171 724 2 0.4238 -20.3352 -8.65133 4.79895 0 -4 0
2170 724 1 -0.8476 -21.2388 -8.77242 5.20987 0 -4 0
3334 1112 1 -0.8476 -18.2471 -13.4874 3.5766 0 -9 0
416 139 2 0.4238 -17.8989 -12.0164 4.08617 0 -4 0
305 102 2 0.4238 -16.7434 -13.5041 1.08511 1 3 0
715 239 1 -0.8476 -18.4386 -7.66139 1.09276 0 2 0
741 247 2 0.4238 -15.9946 -11.6712 2.71424 0 -3 0
739 247 1 -0.8476 -15.5558 -12.0622 1.90521 0 -3 0
740 247 2 0.4238 -14.5889 -11.8071 1.89446 0 -3 0
304 102 1 -0.8476 -17.6267 -13.9678 1.01635 1 3 0
306 102 2 0.4238 -18.1064 -13.6513 0.197977 1 3 0
417 139 2 0.4238 -17.5949 -11.0165 5.34094 0 -4 0
717 239 2 0.4238 -19.1761 -7.75742 0.424223 0 2 0
1380 460 2 0.4238 -16.7077 -8.42255 1.0319 0 0 0
415 139 1 -0.8476 -17.6582 -11.0809 4.34502 0 -4 0
2272 758 1 -0.8476 -13.072 -14.513 1.82284 0 -10 0
1378 460 1 -0.8476 -15.9536 -9.06804 1.15288 0 0 0
254 85 2 0.4238 -18.4095 -9.54074 3.96382 0 0 0
1379 460 2 0.4238 -16.3214 -9.98088 1.33021 0 0 0
2273 758 2 0.4238 -13.6947 -13.8047 1.49039 0 -10 0
2274 758 2 0.4238 -13.5356 -15.3989 1.80612 0 -10 0
2887 963 1 -0.8476 -12.8736 -11.5871 1.49144 0 -1 0
2889 963 2 0.4238 -12.5405 -10.6596 1.32175 0 -1 0
2888 963 2 0.4238 -12.0992 -12.189 1.68619 0 -1 0
2349 783 2 0.4238 -9.74235 -12.8413 2.39056 0 -4 0
2347 783 1 -0.8476 -10.3793 -12.8533 1.61973 0 -4 0
1748 583 2 0.4238 -8.81004 -11.6659 1.23525 0 4 0
1814 605 2 0.4238 -8.61923 -12.2147 4.47738 0 2 0
1813 605 1 -0.8476 -9.27951 -12.9445 4.30043 0 2 0
1747 583 1 -0.8476 -8.3047 -10.8196 1.06709 0 4 0
1749 583 2 0.4238 -8.9148 -10.0369 1.19061 0 4 0
2774 925 2 0.4238 -10.8792 -11.9159 4.78832 0 6 0
3088 1030 1 -0.8476 -9.21062 -8.1301 1.52115 0 -2 0
2773 925 1 -0.8476 -11.633 -11.6053 5.36733 0 6 0
3257 1086 2 0.4238 -12.5903 -10.1065 5.51466 0 -1 0
663 221 2 0.4238 -6.15261 -13.2119 1.67436 0 -1 0
642 214 2 0.4238 -5.04525 -11.0233 0.863416 0 -5 0
641 214 2 0.4238 -6.60158 -10.5448 0.739061 0 -5 0
640 214 1 -0.8476 -5.67062 -10.248 0.951819 0 -5 0
653 218 2 0.4238 -4.71885 -10.8664 4.05013 0 -6 0
90 30 2 0.4238 -4.14106 -12.0344 2.48226 0 -4 0
1152 384 2 0.4238 -5.57015 -9.47207 2.68735 0 1 0
1150 384 1 -0.8476 -5.75222 -9.48804 3.6705 0 1 0
442 148 1 -0.8476 -6.2239 -13.468 5.05887 0 -5 0
652 218 1 -0.8476 -4.32577 -11.7737 4.1997 0 -6 0
88 30 1 -0.8476 -4.1103 -12.4003 1.55208 0 -4 0
654 218 2 0.4238 -5.05508 -12.4201 4.42386 0 -6 0
3399 1133 2 0.4238 -6.40223 -8.76885 0.837214 0 -1 0
1151 384 2 0.4238 -5.49407 -8.60913 4.07161 0 1 0
1196 399 2 0.4238 -3.19774 -8.54864 1.93705 0 -4 0
1195 399 1 -0.8476 -3.36151 -8.09792 1.05954 0 -4 0
1197 399 2 0.4238 -4.3348 -7.88657 0.969891 0 -4 0
2718 906 2 0.4238 -2.00503 -8.71008 4.13116 0 -2 0
3397 1133 1 -0.8476 -6.6661 -7.81531 0.982562 0 -1 0
3398 1133 2 0.4238 -7.60331 -7.77795 1.3293 0 -1 0
903 301 2 0.4238 1.5225 -12.7875 1.40765 0 -4 0
901 301 1 -0.8476 1.90428 -13.6699 1.68258 0 -4 0
902 301 2 0.4238 1.56598 -14.3847 1.07056 0 -4 0
2944 982 1 -0.8476 -1.69409 -11.7204 4.45274 0 -3 0
2946 982 2 0.4238 -1.31123 -12.3372 3.76498 0 -3 0
1076 359 2 0.4238 -1.3734 -9.16699 0.586043 0 -1 0
1075 359 1 -0.8476 -0.875269 -9.59165 1.34202 0 -1 0
1077 359 2 0.4238 -1.41832 -9.5236 2.17898 0 -1 0
2716 906 1 -0.8476 -2.59695 -9.26186 3.54364 0 -2 0
2617 873 1 -0.8476 1.29445 -11.0428 1.06063 0 1 0
2619 873 2 0.4238 0.45054 -10.5065 1.076 0 1 0
2100 700 2 0.4238 -1.76132 -6.05758 3.65847 0 -9 0
2717 906 2 0.4238 -2.62367 -10.2012 3.88548 0 -2 0
3290 1097 2 0.4238 2.66135 -14.6057 2.96696 0 -8 0
960 320 2 0.4238 2.64069 -11.0788 2.59165 0 -3 0
958 320 1 -0.8476 2.73652 -10.9931 3.58334 0 -3 0
372 124 2 0.4238 5.33516 -12.1169 6.53753 0 0 0
2818 940 1 -0.8476 5.14649 -9.43075 2.23973 0 -1 0
2618 873 2 0.4238 1.9799 -10.5698 0.507061 0 1 0
2313 771 2 0.4238 6.50798 -8.53478 1.47111 0 4 0
2819 940 2 0.4238 4.98546 -9.37578 3.22516 0 -1 0
2820 940 2 0.4238 4.27117 -9.51118 1.76295 0 -1 0
2823 941 2 0.4238 4.97465 -9.73782 5.10385 0 8 0
478 160 1 -0.8476 3.06659 -8.37267 0.732504 0 2 0
2312 771 2 0.4238 7.37181 -7.72084 0.349537 0 4 0
2311 771 1 -0.8476 7.25365 -7.88378 1.32905 0 4 0
4739 1580 4 -0.3256 10.0241 -13.8219 1.44463 -1 8 0
230 77 2 0.4238 8.18679 -7.89654 2.82291 0 2 0
4129 1377 3 0.6512 12.2651 -13.4534 4.3874 1 -4 0
4130 1377 4 -0.3256 12.1811 -12.5822 5.13179 1 -4 0
229 77 1 -0.8476 8.6257 -8.31688 3.61705 0 2 0
4131 1377 4 -0.3256 12.4184 -14.334 3.66541 1 -4 0
231 77 2 0.4238 9.55292 -8.60153 3.37365 0 2 0
3474 1158 4 -0.3256 15.6727 -11.2133 1.10096 1 6 0
3473 1158 4 -0.3256 17.8644 -10.6342 0.72497 1 6 0
3472 1158 3 0.6512 16.7685 -10.9165 0.923853 1 6 0
4462 1488 3 0.6512 14.1046 -7.33651 2.65536 1 -21 0
4464 1488 4 -0.3256 15.0343 -6.80651 3.07357 1 -21 0
4233 1411 4 -0.3256 25.623 -11.8864 1.92835 0 3 0
3658 1220 3 0.6512 22.7153 -9.17959 1.92702 0 21 0
3659 1220 4 -0.3256 21.9589 -10.0247 1.7428 0 21 0
4231 1411 3 0.6512 26.5856 -12.1578 1.36261 0 3 0
4232 1411 4 -0.3256 27.5694 -12.4034 0.822379 0 3 0
3891 1297 4 -0.3256 30.9485 -9.0587 2.28099 -1 -6 0
4425 1475 4 -0.3256 29.0715 -12.5794 3.54896 0 -15 0
4368 1456 4 -0.3256 36.9558 -10.7547 4.59332 3 8 0
4366 1456 3 0.6512 36.9571 -9.89636 5.35719 3 8 0
4406 1469 4 -0.3256 40.7124 -9.42514 1.0743 -5 -15 0
4412 1471 4 -0.3256 43.603 -9.39186 5.45725 -1 -22 0
4411 1471 3 0.6512 43.4278 -10.1935 6.26156 -1 -22 0
4405 1469 3 0.6512 41.1356 -8.35817 1.02248 -5 -15 0
4817 1606 4 -0.3256 43.6155 -9.92722 1.5078 0 -5 0
3797 1266 4 -0.3256 46.5811 -12.184 5.02913 -3 -6 0
4407 1469 4 -0.3256 41.5598 -7.2931 0.946241 -5 -15 0
4826 1609 4 -0.3256 43.9822 -6.99129 2.69214 -2 10 0
3796 1266 3 0.6512 45.7285 -12.3791 4.28394 -3 -6 0
3798 1266 4 -0.3256 44.8621 -12.553 3.54954 -3 -6 0
4713 1571 4 -0.3256 52.9952 -13.9085 1.74665 0 -16 0
4793 1598 4 -0.3256 56.8739 -13.6733 0.987504 0 4 0
4127 1376 4 -0.3256 55.0863 -8.89653 1.0542 -1 -3 0
4126 1376 3 0.6512 54.7847 -9.97241 1.32196 -1 -3 0
4128 1376 4 -0.3256 54.4912 -11.0497 1.59312 -1 -3 0
4575 1525 4 -0.3256 58.1712 -9.42154 1.43657 -2 -4 0
4573 1525 3 0.6512 58.6453 -8.38403 1.29872 -2 -4 0
4338 1446 4 -0.3256 -56.1903 -7.22221 2.41927 -3 -7 0
4574 1525 4 -0.3256 59.1163 -7.35541 1.09797 -2 -4 0
4337 1446 4 -0.3256 -55.4693 -5.93768 0.65935 -3 -7 0
4336 1446 3 0.6512 -55.8073 -6.54289 1.57547 -3 -7 0
4848 1616 4 -0.3256 -57.4331 -2.58116 3.04362 4 1 0
4479 1493 4 -0.3256 -52.6525 -4.18616 1.74188 0 8 0
4477 1493 3 0.6512 -52.3039 -3.12053 1.49056 0 8 0
4478 1493 4 -0.3256 -52.0301 -2.03421 1.23543 0 8 0
4807 1603 3 0.6512 -46.3353 -5.43289 4.40307 -4 -3 0
4809 1603 4 -0.3256 -46.3656 -6.58147 4.39482 -4 -3 0
4861 1621 3 0.6512 -49.4615 -5.89408 1.18465 0 8 0
4863 1621 4 -0.3256 -49.2648 -4.80967 0.859828 0 8 0
4862 1621 4 -0.3256 -49.591 -6.99429 1.48956 0 8 0
4142 1381 4 -0.3256 -46.3084 -6.09966 1.50456 -2 -15 0
4330 1444 3 0.6512 -32.2241 -7.39368 5.09727 3 23 0
4065 1355 4 -0.3256 -38.8472 -2.27517 3.19937 -3 -22 0
4064 1355 4 -0.3256 -39.4993 -3.57158 1.42202 -3 -22 0
4063 1355 3 0.6512 -39.2066 -2.87485 2.28755 -3 -22 0
4850 1617 4 -0.3256 -26.5753 -10.0405 1.26349 -2 3 0
4503 1501 4 -0.3256 -31.3167 -5.34213 1.71383 1 -6 0
4502 1501 4 -0.3256 -29.264 -6.02237 0.942947 1 -6 0
4501 1501 3 0.6512 -30.2723 -5.63568 1.33534 1 -6 0
4339 1447 3 0.6512 -24.8125 -4.00351 1.33155 1 19 0
4341 1447 4 -0.3256 -24.7955 -5.13206 1.11644 1 19 0
4340 1447 4 -0.3256 -24.8982 -2.88397 1.57549 1 19 0
3571 1191 3 0.6512 -21.8089 -6.38406 1.17431 -3 12 0
3572 1191 4 -0.3256 -22.0166 -5.30614 1.51368 -3 12 0
972 324 2 0.4238 -23.2343 -6.06 4.22512 0 0 0
1303 435 1 -0.8476 -23.1767 -7.78735 3.62618 0 3 0
1304 435 2 0.4238 -22.3399 -8.02697 4.11849 0 3 0
2651 884 2 0.4238 -20.3578 -4.25466 0.998034 0 4 0
669 223 2 0.4238 -23.9505 -3.23885 4.03193 0 -8 0
667 223 1 -0.8476 -23.3166 -2.4656 4.04623 0 -8 0
716 239 2 0.4238 -18.7755 -7.91532 1.99942 0 2 0
255 85 2 0.4238 -18.29 -7.92031 4.1268 0 0 0
253 85 1 -0.8476 -18.751 -8.6598 3.63625 0 0 0
3102 1034 2 0.4238 -15.1542 -8.52919 2.94123 0 1 0
499 167 1 -0.8476 -16.9635 -5.31236 0.861692 0 2 0
501 167 2 0.4238 -17.2494 -6.25947 0.715899 0 2 0
500 167 2 0.4238 -17.7238 -4.69832 0.649892 0 2 0
840 280 2 0.4238 -15.6247 -4.77387 1.68373 0 5 0
838 280 1 -0.8476 -14.9249 -4.4146 2.30111 0 5 0
839 280 2 0.4238 -15.3565 -3.83776 2.99461 0 5 0
2650 884 1 -0.8476 -19.3994 -3.97125 0.964505 0 4 0
2652 884 2 0.4238 -19.3173 -3.03289 1.30027 0 4 0
1752 584 2 0.4238 -17.7557 -5.15806 3.01073 0 -5 0
1640 547 2 0.4238 -15.8152 -3.29765 4.73152 0 -9 0
1750 584 1 -0.8476 -17.6284 -5.77345 3.78861 0 -5 0
1751 584 2 0.4238 -16.6542 -5.96646 3.90497 0 -5 0
1078 360 1 -0.8476 -19.1663 -2.19538 4.34619 0 -2 0
681 227 2 0.4238 -13.4788 -8.40364 0.602379 0 -8 0
679 227 1 -0.8476 -12.7722 -8.73198 1.22921 0 -8 0
1758 586 2 0.4238 -10.0368 -7.77586 4.66328 0 -11 0
1756 586 1 -0.8476 -10.5061 -8.39732 4.03591 0 -11 0
1757 586 2 0.4238 -11.2525 -8.85642 4.5177 0 -11 0
3100 1034 1 -0.8476 -14.2979 -8.68994 3.43198 0 1 0
3101 1034 2 0.4238 -13.5368 -8.68983 2.78327 0 1 0
591 197 2 0.4238 -13.6272 -3.15889 2.1172 -1 5 0
2761 921 1 -0.8476 -14.671 -6.23372 4.31987 0 -7 0
2762 921 2 0.4238 -14.513 -7.17341 4.0165 0 -7 0
2763 921 2 0.4238 -14.4368 -5.60127 3.58151 0 -7 0
680 227 2 0.4238 -12.0828 -8.01902 1.3573 0 -8 0
2899 967 1 -0.8476 -11.4013 -6.41763 1.6299 0 -4 0
2901 967 2 0.4238 -11.2168 -5.51501 1.24104 0 -4 0
2900 967 2 0.4238 -11.1871 -6.40987 2.60668 0 -4 0
2924 975 2 0.4238 -11.4591 -2.90421 4.67803 0 3 0
368 123 2 0.4238 -9.53658 -3.56569 1.2189 0 -2 0
367 123 1 -0.8476 -10.3847 -3.74138 1.71871 0 -2 0
369 123 2 0.4238 -10.3117 -3.36417 2.64198 0 -2 0
3089 1030 2 0.4238 -9.71204 -7.51008 0.917724 0 -2 0
3090 1030 2 0.4238 -9.79861 -8.40166 2.28309 0 -2 0
3240 1080 2 0.4238 -7.20818 -4.04192 4.44862 0 2 0
3256 1086 1 -0.8476 -12.6975 -9.11243 5.49515 0 -1 0
3258 1086 2 0.4238 -13.4155 -8.86734 4.84368 0 -1 0
613 205 1 -0.8476 -7.67422 -3.3567 1.04568 0 -6 0
615 205 2 0.4238 -6.98151 -4.04522 0.830973 0 -6 0
438 146 2 0.4238 -5.86394 -6.33156 1.03179 0 -1 0
436 146 1 -0.8476 -5.3777 -5.51111 1.33247 0 -1 0
437 146 2 0.4238 -5.7072 -5.24117 2.23724 0 -1 0
453 151 2 0.4238 -2.55731 -5.33157 0.198964 0 -8 0
257 86 2 0.4238 -3.90167 -2.06813 0.472454 0 -3 0
3238 1080 1 -0.8476 -7.20557 -4.78045 3.77441 0 2 0
3239 1080 2 0.4238 -7.46576 -4.41631 2.88015 0 2 0
451 151 1 -0.8476 -2.82721 -4.87339 1.04586 0 -8 0
452 151 2 0.4238 -3.75598 -5.1497 1.29291 0 -8 0
614 205 2 0.4238 -7.25423 -2.44918 1.04285 0 -6 0
1467 489 2 0.4238 -3.5428 -3.33116 2.91154 0 3 0
1465 489 1 -0.8476 -3.93809 -3.44393 3.82315 0 3 0
3203 1068 2 0.4238 -2.89888 -6.69512 4.9929 0 6 0
3202 1068 1 -0.8476 -3.58874 -5.9911 4.82426 0 6 0
1466 489 2 0.4238 -3.65386 -4.32417 4.20314 0 3 0
3123 1041 2 0.4238 0.189811 -6.94446 2.32943 0 0 0
3122 1041 2 0.4238 1.61082 -6.71534 3.10071 0 0 0
3121 1041 1 -0.8476 1.18418 -6.93643 2.22371 0 0 0
256 86 1 -0.8476 -3.35488 -1.79178 1.26279 0 -3 0
258 86 2 0.4238 -2.38324 -1.8701 1.0397 0 -3 0
2098 700 1 -0.8476 -1.34851 -6.32173 2.78679 0 -9 0
2099 700 2 0.4238 -1.9283 -6.00813 2.0348 0 -9 0
1249 417 1 -0.8476 -0.57464 -3.24655 1.46441 0 -1 0
1251 417 2 0.4238 0.304354 -3.72334 1.45794 0 -1 0
1250 417 2 0.4238 -1.31567 -3.91245 1.37807 0 -1 0
102 34 2 0.4238 2.42509 -3.90748 0.160376 0 1 0
100 34 1 -0.8476 2.03354 -4.11343 1.05719 0 1 0
1462 488 1 -0.8476 -1.22762 -7.31021 5.52141 0 3 0
891 297 2 0.4238 0.222097 -3.04547 3.87042 0 -10 0
917 306 2 0.4238 3.19719 -6.45667 4.47445 0 4 0
889 297 1 -0.8476 1.0851 -3.54688 3.93227 0 -10 0
890 297 2 0.4238 1.65873 -3.32146 3.14478 0 -10 0
101 34 2 0.4238 2.31015 -5.03229 1.33861 0 1 0
2852 951 2 0.4238 -2.31009 -2.5671 4.81491 0 3 0
1463 488 2 0.4238 -0.353476 -7.62124 5.14842 0 3 0
480 160 2 0.4238 2.15457 -8.07487 1.01433 0 2 0
479 160 2 0.4238 3.6664 -7.5768 0.649764 0 2 0
918 306 2 0.4238 4.39661 -7.07019 3.55162 0 4 0
916 306 1 -0.8476 3.89067 -6.24042 3.78719 0 4 0
2007 669 2 0.4238 5.51814 -5.44567 1.0409 0 1 0
2005 669 1 -0.8476 4.64607 -5.93049 1.10751 0 1 0
2006 669 2 0.4238 4.30268 -5.87153 2.04486 0 1 0
4158 1386 4 -0.3256 10.375 -7.28708 1.1943 0 -18 0
4156 1386 3 0.6512 10.9312 -6.31395 0.941489 0 -18 0
4157 1386 4 -0.3256 11.464 -5.3281 0.6878 0 -18 0
3524 1175 4 -0.3256 17.0719 -4.34214 1.1836 3 28 0
3660 1220 4 -0.3256 23.4382 -8.303 2.09803 0 21 0
4463 1488 4 -0.3256 13.181 -7.85705 2.21242 1 -21 0
3525 1175 4 -0.3256 15.8846 -3.28964 2.84505 3 28 0
3523 1175 3 0.6512 16.4657 -3.8388 2.01985 3 28 0
4860 1620 4 -0.3256 25.2021 -5.87888 1.02385 2 -23 0
4858 1620 3 0.6512 25.1368 -4.73235 0.986317 2 -23 0
3890 1297 4 -0.3256 28.8807 -8.73769 1.33353 -1 -6 0
3889 1297 3 0.6512 29.9154 -8.92877 1.79535 -1 -6 0
3928 1310 3 0.6512 28.502 -4.53758 1.41442 -3 2 0
4859 1620 4 -0.3256 25.0346 -3.58909 1.03849 2 -23 0
3929 1310 4 -0.3256 28.6714 -5.63371 1.71444 -3 2 0
3930 1310 4 -0.3256 28.3282 -3.44792 1.09407 -3 2 0
3556 1186 3 0.6512 33.5799 -7.62955 1.02795 0 40 0
4787 1596 4 -0.3256 33.1394 -9.74353 5.68968 -3 -7 0
4786 1596 3 0.6512 32.7457 -8.86045 6.31044 -3 -7 0
3558 1186 4 -0.3256 32.6839 -6.91679 1.12437 0 40 0
3557 1186 4 -0.3256 34.4691 -8.33414 0.84618 0 40 0
4857 1619 4 -0.3256 37.2008 -7.14761 3.46038 -1 28 0
4856 1619 4 -0.3256 38.2507 -6.14193 1.68421 -1 28 0
4855 1619 3 0.6512 37.6948 -6.5991 2.57988 -1 28 0
4827 1609 4 -0.3256 45.0464 -5.65298 1.15896 -2 10 0
4825 1609 3 0.6512 44.5304 -6.35512 1.90793 -2 10 0
3766 1256 3 0.6512 48.6547 -4.71496 4.11956 4 0 0
4278 1426 4 -0.3256 48.7124 -4.5458 1.41442 0 5 0
4276 1426 3 0.6512 48.13 -3.60615 1.10123 0 5 0
3767 1256 4 -0.3256 47.5465 -4.95943 3.93957 4 0 0
3768 1256 4 -0.3256 49.766 -4.482 4.29571 4 0 0
4491 1497 4 -0.3256 53.9289 -4.00463 3.76862 -1 -20 0
4643 1548 4 -0.3256 51.8354 -5.64287 1.00981 -1 -8 0
4644 1548 4 -0.3256 54.1253 -5.50872 0.897893 -1 -8 0
4642 1548 3 0.6512 52.98 -5.54569 0.981572 -1 -8 0
4490 1497 4 -0.3256 52.6333 -5.00932 5.37837 -1 -20 0
4489 1497 3 0.6512 53.269 -4.51419 4.55922 -1 -20 0
4555 1519 3 0.6512 -59.2591 -5.1822 2.6154 0 10 0
4556 1519 4 -0.3256 -59.9838 -4.77085 1.82431 0 10 0
4557 1519 4 -0.3256 -58.4504 -5.57774 3.3294 0 10 0
3653 1218 4 -0.3256 54.6423 -1.92966 0.785079 -4 14 0
4846 1616 3 0.6512 -56.3817 -2.12027 3.09205 4 1 0
4847 1616 4 -0.3256 -55.3262 -1.66625 3.08365 4 1 0
4467 1489 4 -0.3256 -58.2167 1.97137 1.78234 -2 13 0
4465 1489 3 0.6512 -57.8497 1.25756 2.60453 -2 13 0
4466 1489 4 -0.3256 -57.3829 0.564319 3.39299 -2 13 0
4429 1477 3 0.6512 -49.5726 0.918443 1.44257 0 32 0
4430 1477 4 -0.3256 -50.4919 0.822515 2.1252 0 32 0
4431 1477 4 -0.3256 -48.6602 1.01764 0.751487 0 32 0
4394 1465 4 -0.3256 -40.7776 -0.467129 1.37268 0 12 0
4393 1465 3 0.6512 -41.8022 -0.0509907 1.06089 0 12 0
4395 1465 4 -0.3256 -42.8201 0.387436 0.757965 0 12 0
3620 1207 4 -0.3256 -34.9013 0.358355 0.960315 0 -4 0
3619 1207 3 0.6512 -35.338 1.12296 1.69845 0 -4 0
3621 1207 4 -0.3256 -35.7774 1.84577 2.47601 0 -4 0
4662 1554 4 -0.3256 -38.1721 2.85264 0.896416 1 -7 0
4660 1554 3 0.6512 -39.3097 2.97876 0.9969 1 -7 0
4045 1349 3 0.6512 -28.6249 -0.915029 1.0764 3 -9 0
4046 1349 4 -0.3256 -27.9337 -0.00706816 1.21079 3 -9 0
4047 1349 4 -0.3256 -29.3068 -1.83113 0.950269 3 -9 0
4147 1383 3 0.6512 -29.8229 3.87175 1.22303 2 -2 0
4148 1383 4 -0.3256 -30.2182 2.79828 1.33068 2 -2 0
3587 1196 4 -0.3256 -25.6786 2.11632 3.83612 1 23 0
2117 706 2 0.4238 -20.8778 -0.917724 1.80238 0 -1 0
3720 1240 4 -0.3256 -24.4972 1.777 0.942832 1 -20 0
3718 1240 3 0.6512 -25.2779 2.61891 0.898685 1 -20 0
3719 1240 4 -0.3256 -26.076 3.43575 0.772442 1 -20 0
2724 908 2 0.4238 -23.3858 -0.00223821 1.88567 0 -1 0
2722 908 1 -0.8476 -22.6256 -0.444004 2.36194 0 -1 0
2723 908 2 0.4238 -22.9809 -1.15183 2.97246 0 -1 0
283 95 1 -0.8476 -20.8164 1.17295 4.19339 0 1 0
285 95 2 0.4238 -21.3269 0.47265 3.69442 0 1 0
284 95 2 0.4238 -21.3238 1.43357 5.01474 0 1 0
3856 1286 3 0.6512 -21.5895 2.38003 1.55208 3 -2 0
3858 1286 4 -0.3256 -21.2436 1.61575 0.767054 3 -2 0
1079 360 2 0.4238 -19.4755 -1.83913 3.46444 0 -2 0
1639 547 1 -0.8476 -16.17 -2.88633 3.8919 0 -9 0
1295 432 2 0.4238 -15.7746 -1.20585 2.72745 0 3 0
1641 547 2 0.4238 -17.1486 -2.70868 3.99547 0 -9 0
2116 706 1 -0.8476 -20.0404 -1.45382 1.90891 0 -1 0
2118 706 2 0.4238 -19.2849 -0.986768 1.44949 0 -1 0
1294 432 1 -0.8476 -15.1561 -0.520758 2.34258 0 3 0
3427 1143 1 -0.8476 -18.2248 2.16298 3.35397 0 0 0
2377 793 1 -0.8476 -17.5517 -0.124738 0.692922 0 -6 0
2379 793 2 0.4238 -16.6568 0.154802 1.04061 0 -6 0
2801 934 2 0.4238 -14.1982 0.57607 3.47024 1 -1 0
2378 793 2 0.4238 -17.8667 0.537492 0.012833 0 -6 0
3429 1143 2 0.4238 -17.5923 1.4017 3.49688 0 0 0
3428 1143 2 0.4238 -19.1244 1.92176 3.71801 0 0 0
2802 934 2 0.4238 -14.2101 1.91381 4.40669 1 -1 0
3044 1015 2 0.4238 -14.0678 -0.508 5.75374 0 3 0
590 197 2 0.4238 -12.0806 -3.00859 1.61496 -1 5 0
2925 975 2 0.4238 -10.9527 -1.44186 4.15685 0 3 0
589 197 1 -0.8476 -12.9396 -2.52078 1.77075 -1 5 0
2923 975 1 -0.8476 -10.7456 -2.42008 4.17163 0 3 0
1296 432 2 0.4238 -14.4446 -0.976868 1.80811 0 3 0
2800 934 1 -0.8476 -13.9477 0.949821 4.36331 1 -1 0
1405 469 1 -0.8476 -11.2885 0.413689 3.84642 0 -10 0
423 141 2 0.4238 -11.6233 -0.0494116 2.34867 0 1 0
1406 469 2 0.4238 -12.1293 0.863379 4.14759 0 -10 0
1172 391 2 0.4238 -12.6945 2.92721 0.680153 0 -7 0
1171 391 1 -0.8476 -11.8081 2.46549 0.713509 0 -7 0
1173 391 2 0.4238 -11.9487 1.48157 0.823458 0 -7 0
421 141 1 -0.8476 -11.7741 -0.364295 1.41158 0 1 0
422 141 2 0.4238 -12.2251 -1.25665 1.42836 0 1 0
2544 848 2 0.4238 -9.8591 -0.105616 0.758781 0 -8 0
1767 589 2 0.4238 -8.96386 3.89358 5.2461 0 -2 0
2543 848 2 0.4238 -9.23462 1.39511 0.915189 0 -8 0
1765 589 1 -0.8476 -8.58252 4.57001 4.616 0 -2 0
1766 589 2 0.4238 -7.96941 4.11532 3.96997 0 -2 0
1407 469 2 0.4238 -10.498 0.911799 4.20291 0 -10 0
660 220 2 0.4238 -8.22014 0.0884078 3.21139 0 0 0
2542 848 1 -0.8476 -9.03717 0.417262 0.984702 0 -8 0
658 220 1 -0.8476 -7.55348 0.423407 3.87723 0 0 0
900 300 2 0.4238 -3.87935 -0.213204 1.76771 0 -8 0
1347 449 2 0.4238 -6.03859 -0.208292 1.4324 0 -4 0
1345 449 1 -0.8476 -6.63385 -0.883467 0.996764 0 -4 0
1346 449 2 0.4238 -7.4771 -0.438809 0.694722 0 -4 0
218 73 2 0.4238 -4.30306 3.75242 1.01823 0 -8 0
899 300 2 0.4238 -3.96984 1.33845 2.26853 0 -8 0
898 300 1 -0.8476 -4.4587 0.467681 2.21574 0 -8 0
659 220 2 0.4238 -6.76286 -0.188666 3.89419 0 0 0
703 235 1 -0.8476 -5.18066 -1.04808 4.30469 0 0 0
705 235 2 0.4238 -4.75947 -0.476843 3.60022 0 0 0
2208 736 2 0.4238 -7.86978 3.07808 1.9669 0 -9 0
2206 736 1 -0.8476 -7.20317 3.12968 2.7105 0 -9 0
460 154 1 -0.8476 0.16578 -0.6982 1.70485 0 -6 0
462 154 2 0.4238 0.125541 -1.64125 1.37467 0 -6 0
461 154 2 0.4238 -0.295621 -0.634927 2.58981 0 -6 0
1760 587 2 0.4238 -2.88909 3.25926 3.59187 0 -9 0
1759 587 1 -0.8476 -2.67876 2.31217 3.34943 0 -9 0
1761 587 2 0.4238 -1.92104 2.29551 2.69707 0 -9 0
2833 945 1 -0.8476 -0.5239 2.04033 1.55623 0 -4 0
2834 945 2 0.4238 -0.471262 1.05689 1.38285 0 -4 0
2835 945 2 0.4238 0.159817 2.51377 1.00093 0 -4 0
1592 531 2 0.4238 -1.6814 0.898574 4.28151 0 -1 0
595 199 1 -0.8476 2.63321 2.11411 1.14728 0 -1 0
664 222 1 -0.8476 3.66663 -1.59947 5.36175 0 -7 0
596 199 2 0.4238 2.75823 1.32383 0.547433 0 -1 0
666 222 2 0.4238 3.62629 -2.58932 5.498 0 -7 0