LAMMPS data file via write_data, version 17 Nov 2016, timestep = 500000

3936 atoms
4 atom types
2624 bonds
2 bond types
1312 angles
2 angle types

 
-6.0000000000000000e+01 6.0000000000000000e+01 xlo xhi
-2.0000000000000000e+01 2.0000000000000000e+01 ylo yhi
-0.75000000000000e+01 3.0000000000000000e+01 zlo zhi

Bond Coeffs

1 1000 1.0
2 1000 1.149

Angle Coeffs

1 1000 109.47
2 147.70554 180.0

Masses

1 15.9994
2 1.008
3 12.0107
4 15.9994

Atoms

3926 1309 4 -3.2560000000000000e-01 -5.9474721681994481e+01 -1.4532213457322374e+01 4.9425472732361619e+00 0 1 0
3925 1309 3 6.5120000000000000e-01 -5.9785802896543572e+01 -1.5545050481040237e+01 5.3870589618800135e+00 0 1 0
1133 378 2 4.2380000000000001e-01 -2.0210189343846110e+01 -1.4462789218863461e+01 2.2788169618047771e+00 0 1 0
1132 378 1 -8.4760000000000002e-01 -1.9581192838866560e+01 -1.5106903941843298e+01 2.7141095305032548e+00 0 1 0
291 97 2 4.2380000000000001e-01 -1.6412641899571479e+01 -1.5779075237905367e+01 1.4039043806820592e+00 0 0 0
1134 378 2 4.2380000000000001e-01 -1.8705110463979242e+01 -1.5094569397200955e+01 2.2321396896207939e+00 0 1 0
579 193 2 4.2380000000000001e-01 -1.5176263949724765e+01 -1.8409785745072899e+01 1.7656450759798117e+00 0 0 0
577 193 1 -8.4760000000000002e-01 -1.5338782691229683e+01 -1.7453557320874747e+01 2.0089191097671728e+00 0 0 0
578 193 2 4.2380000000000001e-01 -1.5188022975977489e+01 -1.7328860471964319e+01 2.9895934716880341e+00 0 0 0
630 210 2 4.2380000000000001e-01 -1.5979246289345863e+01 1.8874471645625309e+01 4.7706033659958340e+00 0 -1 0
628 210 1 -8.4760000000000002e-01 -1.6404089557060349e+01 1.9249988749149711e+01 5.5942917166105079e+00 0 -1 0
315 105 2 4.2380000000000001e-01 -1.2650942354466792e+01 -1.8229785012128087e+01 2.7480482062597913e+00 0 0 0
313 105 1 -8.4760000000000002e-01 -1.2285481901423784e+01 -1.7727312836583923e+01 1.9645127787483598e+00 0 0 0
314 105 2 4.2380000000000001e-01 -1.2565611114170084e+01 -1.6769129803892323e+01 2.0229328097999097e+00 0 0 0
605 202 2 4.2380000000000001e-01 -8.6701054090358163e+00 -1.8995574852895690e+01 1.3576751717857012e+00 0 0 0
899 300 2 4.2380000000000001e-01 -1.3909460350253378e+01 1.9802130034000108e+01 9.9891099530406235e-01 0 -1 0
652 218 1 -8.4760000000000002e-01 -9.5262404366513493e+00 -1.7329365237932681e+01 1.8612034818075762e+00 0 0 0
653 218 2 4.2380000000000001e-01 -1.0408137463678182e+01 -1.7689939538730709e+01 1.5574868254891459e+00 0 0 0
702 234 2 4.2380000000000001e-01 -1.0624876411801877e+01 -1.5114397330913372e+01 4.0230322147206685e+00 0 0 0
700 234 1 -8.4760000000000002e-01 -1.0373182751997344e+01 -1.5453239583856533e+01 4.9295868670911718e+00 0 0 0
10 4 1 -8.4760000000000002e-01 -1.2979670456496597e+01 -1.8897852672702829e+01 4.1945264891878500e+00 0 0 0
651 217 2 4.2380000000000001e-01 -1.4008374516509230e+01 -1.5416291271712858e+01 4.8656377849652461e+00 0 0 0
654 218 2 4.2380000000000001e-01 -9.5711644112763832e+00 -1.6331296811657044e+01 1.9041727903378178e+00 0 0 0
368 123 2 4.2380000000000001e-01 -1.3775699691669505e+01 -1.5124809044147204e+01 2.4983097580194511e+00 0 0 0
1658 553 2 4.2380000000000001e-01 -7.7603676755326489e+00 -1.6286113957113542e+01 9.9223082345581815e-01 0 1 0
367 123 1 -8.4760000000000002e-01 -1.3318846076189303e+01 -1.5116049641898940e+01 1.6088109964155235e+00 0 0 0
369 123 2 4.2380000000000001e-01 -1.3967856543614321e+01 -1.5387451117159161e+01 8.9808477563895994e-01 0 0 0
729 243 2 4.2380000000000001e-01 -1.1753357754155591e+01 -1.4847590140989954e+01 1.8860708690269365e+00 0 0 0
727 243 1 -8.4760000000000002e-01 -1.0767307213642470e+01 -1.4899375931137042e+01 2.0442483941328198e+00 0 0 0
701 234 2 4.2380000000000001e-01 -1.1196279332114731e+01 -1.5552140244205448e+01 5.4888101491365564e+00 0 0 0
604 202 1 -8.4760000000000002e-01 -8.2332772151394149e+00 -1.9894994077977923e+01 1.3426356714721259e+00 0 0 0
627 209 2 4.2380000000000001e-01 -6.6707094295774203e+00 -1.8660779455027964e+01 4.0519712570486579e+00 0 0 0
625 209 1 -8.4760000000000002e-01 -6.0923368763958639e+00 -1.7903546736683214e+01 3.7485718567617350e+00 0 0 0
891 297 2 4.2380000000000001e-01 -4.0018726298704621e+00 -1.8365688943100938e+01 1.1977620212539279e+00 0 0 0
889 297 1 -8.4760000000000002e-01 -4.7046904012076158e+00 -1.7681310579571232e+01 1.3917744742693963e+00 0 0 0
1659 553 2 4.2380000000000001e-01 -6.1580264476628486e+00 -1.6586956748601196e+01 8.9937979880546870e-01 0 1 0
626 209 2 4.2380000000000001e-01 -6.6282360888597331e+00 -1.7059368759725725e+01 3.7353212982615500e+00 0 0 0
890 297 2 4.2380000000000001e-01 -5.2630413129841394e+00 -1.7986382885777431e+01 2.1632504280776503e+00 0 0 0
1495 499 1 -8.4760000000000002e-01 -3.4389754501023937e+00 -1.6187184638158566e+01 3.4382897756600888e+00 0 0 0
1497 499 2 4.2380000000000001e-01 -3.9502666428781441e+00 -1.5589078714342756e+01 4.0553943180079663e+00 0 0 0
1657 553 1 -8.4760000000000002e-01 -6.8488938010436398e+00 -1.5877210979598779e+01 1.0371054388141074e+00 0 1 0
1496 499 2 4.2380000000000001e-01 -4.0632147654579800e+00 -1.6847773558542517e+01 3.0212195712216068e+00 0 0 0
1563 521 2 4.2380000000000001e-01 -8.4371819931242271e+00 -1.5355181867599210e+01 4.5915981288180960e+00 0 0 0
1562 521 2 4.2380000000000001e-01 -7.3577957880628446e+00 -1.4767168580291010e+01 3.5165209675072489e+00 0 0 0
1561 521 1 -8.4760000000000002e-01 -7.4920173479492087e+00 -1.5411022276673473e+01 4.2698051041491354e+00 0 0 0
1660 554 1 -8.4760000000000002e-01 -3.1800810353065643e+00 -1.9946527596309441e+01 1.5506417155532159e+00 0 1 0
1662 554 2 4.2380000000000001e-01 -2.9910601802455057e+00 -1.9768859760028345e+01 2.5164110279685459e+00 0 1 0
1418 473 2 4.2380000000000001e-01 -2.4443107118866685e+00 -1.9056925843925420e+01 4.5701347254284181e+00 0 1 0
1155 385 2 4.2380000000000001e-01 -6.4140423503341628e+00 -1.4402970681950409e+01 1.7932564709518568e+00 0 0 0
1472 491 2 4.2380000000000001e-01 -7.9131488360445985e+00 -1.9819658193141422e+01 3.3204246014586141e+00 0 0 0
1449 483 2 4.2380000000000001e-01 -2.6702327638703958e+00 -1.5708763337625335e+01 1.8224237698903902e+00 0 0 0
1448 483 2 4.2380000000000001e-01 -2.6530933105254055e+00 -1.6235232898336015e+01 2.7674481328777867e-01 0 0 0
1447 483 1 -8.4760000000000002e-01 -2.2871093451004501e+00 -1.5554837139204052e+01 9.1166004228064490e-01 0 0 0
1756 586 1 -8.4760000000000002e-01 -9.2802162232593477e-01 -1.6925404846041783e+01 4.0787344048383556e+00 0 0 0
1682 561 2 4.2380000000000001e-01 -3.1065860377451121e-01 -1.8490521106862584e+01 6.5253457185553243e-01 0 1 0
1681 561 1 -8.4760000000000002e-01 -4.7685903421912551e-01 -1.9465883383462749e+01 7.9760643785775387e-01 0 1 0
1683 561 2 4.2380000000000001e-01 -1.4537178268427682e+00 -1.9655773101798253e+01 6.9934052187290552e-01 0 1 0
2261 754 2 4.2380000000000001e-01 1.9872552179391940e+00 -1.8658724746181871e+01 1.0681916548470243e+00 0 1 0
1757 586 2 4.2380000000000001e-01 -1.8048277289985737e+00 -1.6535663834406250e+01 3.7971087754100639e+00 0 0 0
2046 682 2 4.2380000000000001e-01 -1.3781136905517644e-01 -1.5257286239231968e+01 1.2051067106037812e+00 0 0 0
2260 754 1 -8.4760000000000002e-01 2.4062933023774482e+00 -1.8524350772908175e+01 1.9661619879298931e+00 0 1 0
2045 682 2 4.2380000000000001e-01 1.0795772972633282e+00 -1.5610106705433161e+01 2.2347036947916852e+00 0 0 0
2618 873 2 4.2380000000000001e-01 2.2430805880691627e+00 1.9906337070536107e+01 2.7554350792382127e+00 0 -1 0
2262 754 2 4.2380000000000001e-01 3.2647814319278687e+00 -1.8022321484783024e+01 1.8616052024706287e+00 0 1 0
2044 682 1 -8.4760000000000002e-01 8.4973589462259136e-01 -1.5391952670485050e+01 1.2862408612193852e+00 0 0 0
1814 605 2 4.2380000000000001e-01 1.8083264982212999e+00 -1.7712112292718395e+01 3.3529584213701651e+00 0 0 0
1813 605 1 -8.4760000000000002e-01 1.5584131059136648e+00 -1.6946490242613258e+01 3.9457199018478519e+00 0 0 0
1815 605 2 4.2380000000000001e-01 5.6249038245121985e-01 -1.6891755028408657e+01 4.0174166773480460e+00 0 0 0
2958 986 2 4.2380000000000001e-01 2.9744553712345407e+00 -1.5873140820484807e+01 4.1589700582330789e+00 0 0 0
1470 490 2 4.2380000000000001e-01 3.8700844887371111e+00 -1.5230963450398955e+01 1.3900389435690410e+00 0 0 0
1468 490 1 -8.4760000000000002e-01 3.4227935215231842e+00 -1.6113461952620170e+01 1.2447992095905460e+00 0 0 0
1469 490 2 4.2380000000000001e-01 2.5909299467776750e+00 -1.5980833201327423e+01 7.0589976874638494e-01 0 0 0
2957 986 2 4.2380000000000001e-01 3.8592106836994158e+00 -1.4658372810478804e+01 3.5200867923454511e+00 0 0 0
1491 497 2 4.2380000000000001e-01 6.7505841975516905e+00 -1.8485787060623029e+01 2.3470546368883296e+00 0 0 0
1489 497 1 -8.4760000000000002e-01 5.9540259759239529e+00 -1.8354656712908398e+01 1.7569129356287982e+00 0 0 0
2307 769 2 4.2380000000000001e-01 9.2891636419666224e+00 -1.4215145620775740e+01 2.6191680204706489e+00 0 0 0
2597 866 2 4.2380000000000001e-01 4.8856920597137972e+00 -1.6711538477642019e+01 4.9519508604796831e+00 0 0 0
2305 769 1 -8.4760000000000002e-01 9.4870617095349115e+00 -1.4951885080406402e+01 1.9726243486464992e+00 0 0 0
1490 497 2 4.2380000000000001e-01 5.6621950335296560e+00 -1.7399084883341565e+01 1.7983518014380755e+00 0 0 0
2353 785 1 -8.4760000000000002e-01 1.0197340176019603e+01 -1.7229660084559413e+01 3.7492330307399295e+00 0 0 0
2355 785 2 4.2380000000000001e-01 1.0088359505770102e+01 -1.6599468490015457e+01 2.9805008512533964e+00 0 0 0
2354 785 2 4.2380000000000001e-01 9.3535162554771301e+00 -1.7751398677305655e+01 3.8747321620496766e+00 0 0 0
2065 689 1 -8.4760000000000002e-01 7.8059248028961195e+00 -1.8741162368538543e+01 4.0527771790774034e+00 0 0 0
2067 689 2 4.2380000000000001e-01 7.0743955405675605e+00 -1.8350611360268534e+01 4.6116172674714919e+00 0 0 0
2617 873 1 -8.4760000000000002e-01 2.2117558456269584e+00 1.9020526329547764e+01 3.2184232990242143e+00 0 -1 0
2883 961 2 4.2380000000000001e-01 5.4510809672545788e+00 1.9620234959475102e+01 1.3592003856616175e+00 0 -1 0
2882 961 2 4.2380000000000001e-01 4.2906437919000995e+00 1.8481220712722848e+01 1.5095982042984080e+00 0 -1 0
2066 689 2 4.2380000000000001e-01 8.1286993785262105e+00 -1.9589770549051885e+01 4.4719200297770776e+00 0 0 0
2306 769 2 4.2380000000000001e-01 9.6538050443120529e+00 -1.4563990501200511e+01 1.0661286477575862e+00 0 0 0
2956 986 1 -8.4760000000000002e-01 3.7806205798466306e+00 -1.5295437042211269e+01 4.2868806109326458e+00 0 0 0
2598 866 2 4.2380000000000001e-01 5.2131197629689430e+00 -1.8014920581413467e+01 5.8796219157624137e+00 0 0 0
3196 1066 1 -8.4760000000000002e-01 1.2772112126795806e+01 -1.8353367700741838e+01 3.1823904564022252e+00 0 0 0
2313 771 2 4.2380000000000001e-01 1.0219614486371224e+01 -1.5847153197828479e+01 4.9384297954092133e+00 0 0 0
3198 1066 2 4.2380000000000001e-01 1.1860087308821164e+01 -1.8099957950807319e+01 3.5048212646951802e+00 0 0 0
3197 1066 2 4.2380000000000001e-01 1.2709513163792328e+01 -1.8705990318520399e+01 2.2487209970849120e+00 0 0 0
3462 1154 4 -3.2560000000000000e-01 3.9618825196274081e+01 -1.7842737625836776e+01 1.3595394380931469e+00 -1 0 0
3460 1154 3 6.5120000000000000e-01 4.0424974140423551e+01 -1.8608275712789972e+01 1.6498432742213254e+00 -1 0 0
3528 1176 4 -3.2560000000000000e-01 3.8422467716689056e+01 -1.4630839131949402e+01 3.2248495443249658e+00 -1 1 0
3526 1176 3 6.5120000000000000e-01 3.9128756727475022e+01 -1.3724632486735747e+01 3.2127520481546230e+00 -1 1 0
3527 1176 4 -3.2560000000000000e-01 3.9835045738260987e+01 -1.2818425841522089e+01 3.2006545519842802e+00 -1 1 0
3474 1158 4 -3.2560000000000000e-01 4.5677315049741246e+01 -1.4136527312302810e+01 4.6661595049800075e+00 -1 0 0
3472 1158 3 6.5120000000000000e-01 4.5643805229613321e+01 -1.3330344178406257e+01 5.4841734697603934e+00 -1 0 0
3618 1206 4 -3.2560000000000000e-01 4.8524990304492484e+01 -1.7099049871860370e+01 4.5561089012593827e+00 -1 0 0
3617 1206 4 -3.2560000000000000e-01 4.6320532482529984e+01 -1.7052655029393275e+01 5.2034243033477292e+00 -1 0 0
3616 1206 3 6.5120000000000000e-01 4.7422761393511237e+01 -1.7075852450626822e+01 4.8797666023035555e+00 -1 0 0
3842 1281 4 -3.2560000000000000e-01 5.3435153993959865e+01 -1.8760287766303307e+01 9.4410759281707968e-01 -1 0 0
3509 1170 4 -3.2560000000000000e-01 5.0622558992100409e+01 -1.1758966521386421e+01 1.5979240287659602e+00 -1 0 0
3927 1309 4 -3.2560000000000000e-01 5.9903115888907337e+01 -1.6557887504758099e+01 5.8315706505238643e+00 -1 1 0
3713 1238 4 -3.2560000000000000e-01 5.8906642689609100e+01 1.9297599268217407e+01 8.1525213129649865e-01 -1 -1 0
3712 1238 3 6.5120000000000000e-01 5.9683635562875587e+01 -1.9858210266898549e+01 8.7710303179072979e-01 -1 0 0
3714 1238 4 -3.2560000000000000e-01 -5.9539371563857927e+01 -1.9014019802014502e+01 9.3895393228496093e-01 0 0 0
3819 1273 4 -3.2560000000000000e-01 -5.5444292314439117e+01 -1.3608935555164869e+01 1.7414682614929740e+00 0 0 0
3724 1242 3 6.5120000000000000e-01 -5.9096190777431552e+01 -1.1440866996379128e+01 3.0316503798259014e+00 0 0 0
3725 1242 4 -3.2560000000000000e-01 -5.7975054494625311e+01 -1.1676583991722362e+01 2.9439467112494357e+00 0 0 0
3726 1242 4 -3.2560000000000000e-01 5.9782672939762207e+01 -1.1205150001035893e+01 3.1193540484023674e+00 -1 0 0
3817 1273 3 6.5120000000000000e-01 -5.4453514185289755e+01 -1.3031153739986063e+01 1.8102277906360307e+00 0 0 0
3818 1273 4 -3.2560000000000000e-01 -5.3462736056140393e+01 -1.2453371924807259e+01 1.8789873197790872e+00 0 0 0
3830 1277 4 -3.2560000000000000e-01 -5.1966719201039609e+01 -9.2116753375823865e+00 9.0292180340107198e-01 0 0 0
3829 1277 3 6.5120000000000000e-01 -5.1091329077164410e+01 -9.9555534964791068e+00 9.2612559055285415e-01 0 0 0
3831 1277 4 -3.2560000000000000e-01 -5.0215938953289204e+01 -1.0699431655375829e+01 9.4932937770463621e-01 0 0 0
3855 1285 4 -3.2560000000000000e-01 -3.7764718169602659e+01 -8.6951070911209491e+00 1.5943746108668602e+00 0 0 0
289 97 1 -8.4760000000000002e-01 -1.6958783957504213e+01 -1.4949179922079674e+01 1.5177903474539518e+00 0 0 0
290 97 2 4.2380000000000001e-01 -1.6422700734520777e+01 -1.4155356142203097e+01 1.2306343192425317e+00 0 0 0
650 217 2 4.2380000000000001e-01 -1.5480776856807386e+01 -1.4878728139635724e+01 4.4077269466834483e+00 0 0 0
338 113 2 4.2380000000000001e-01 -1.8560498403488367e+01 -1.1522707317344585e+01 3.4763978249135534e+00 0 0 0
339 113 2 4.2380000000000001e-01 -1.7096260044473876e+01 -1.0896387417871237e+01 3.8373920182383818e+00 0 0 0
337 113 1 -8.4760000000000002e-01 -1.7865891172896802e+01 -1.1428885989837879e+01 4.1896427714184670e+00 0 0 0
5 2 2 4.2380000000000001e-01 -1.6166649750102426e+01 -1.0719316469103092e+01 1.5681790307353678e+00 0 0 0
4 2 1 -8.4760000000000002e-01 -1.6524216821484316e+01 -9.9119764176945608e+00 2.0375912492118906e+00 0 0 0
6 2 2 4.2380000000000001e-01 -1.6067663661634707e+01 -9.0937753570486759e+00 1.6882008762917358e+00 0 0 0
1041 347 2 4.2380000000000001e-01 -1.8166377346994011e+01 -1.0654036504396540e+01 5.9597677882890236e+00 0 0 0
941 314 2 4.2380000000000001e-01 -1.5255368588101389e+01 -1.3067098010760198e+01 2.3763878571628334e+00 0 0 0
940 314 1 -8.4760000000000002e-01 -1.5283739541157850e+01 -1.2664934241674757e+01 1.4612597831438672e+00 0 0 0
649 217 1 -8.4760000000000002e-01 -1.4595307906601729e+01 -1.5210689274900982e+01 4.0825400113753201e+00 0 0 0
942 314 2 4.2380000000000001e-01 -1.4517201608851925e+01 -1.2032209599367624e+01 1.3513314708059267e+00 0 0 0
85 29 1 -8.4760000000000002e-01 -1.2116623818080384e+01 -1.1785512748043256e+01 4.6156829726336968e+00 0 0 0
87 29 2 4.2380000000000001e-01 -1.2273986443337217e+01 -1.2185810894675971e+01 3.7129112183266111e+00 0 0 0
385 129 1 -8.4760000000000002e-01 -1.2591303117420249e+01 -1.1724302068327599e+01 1.3088646540825997e+00 0 0 0
1205 402 2 4.2380000000000001e-01 -1.1098583686383261e+01 -1.0360764373053746e+01 5.0495427528187706e+00 0 0 0
728 243 2 4.2380000000000001e-01 -1.0335400470350407e+01 -1.4051558912891439e+01 1.7365750792808810e+00 0 0 0
387 129 2 4.2380000000000001e-01 -1.2054936894621321e+01 -1.2448676739267125e+01 8.7573912996555447e-01 0 0 0
361 121 1 -8.4760000000000002e-01 -9.3079040311794721e+00 -1.2877127557706707e+01 1.0361042758218786e+00 0 0 0
386 129 2 4.2380000000000001e-01 -1.1975088398899025e+01 -1.1028446169991868e+01 1.6777331800226429e+00 0 0 0
25 9 1 -8.4760000000000002e-01 -1.0631049655837556e+01 -1.2400531569400217e+01 6.7118129241390267e+00 0 0 0
26 9 2 4.2380000000000001e-01 -1.0957630666784794e+01 -1.2200471811839199e+01 5.7880592033382348e+00 0 0 0
362 121 2 4.2380000000000001e-01 -9.7752936571083495e+00 -1.2009731875102631e+01 1.2069014285319668e+00 0 0 0
1571 524 2 4.2380000000000001e-01 -1.0711974532123270e+01 -7.6000880462770848e+00 2.6949331895444493e+00 0 0 0
1570 524 1 -8.4760000000000002e-01 -1.1380194630862388e+01 -7.7443870123180414e+00 1.9650977916357180e+00 0 0 0
918 306 2 4.2380000000000001e-01 -9.5059548329529964e+00 -1.0085634247958758e+01 2.1266563536644076e+00 0 0 0
916 306 1 -8.4760000000000002e-01 -1.0409850787243029e+01 -1.0254485410075770e+01 1.7336820733738980e+00 0 0 0
962 321 2 4.2380000000000001e-01 -8.8552637824635703e+00 -9.9792690597999290e+00 4.0893707132543886e+00 0 0 0
917 306 2 4.2380000000000001e-01 -1.0931505334912234e+01 -9.4014573095350809e+00 1.7188634167552888e+00 0 0 0
86 29 2 4.2380000000000001e-01 -1.2983140957212884e+01 -1.1454190435667993e+01 4.9890106744078064e+00 0 0 0
27 9 2 4.2380000000000001e-01 -1.0119801035385290e+01 -1.3259924205915915e+01 6.7057680512492102e+00 0 0 0
363 121 2 4.2380000000000001e-01 -8.3342386193212867e+00 -1.2706880150798089e+01 8.8445799432469308e-01 0 0 0
1154 385 2 4.2380000000000001e-01 -5.5188628583360897e+00 -1.3074058258958008e+01 1.4782440184638030e+00 0 0 0
1153 385 1 -8.4760000000000002e-01 -5.9074387348723176e+00 -1.3643993841085111e+01 2.2022483143070968e+00 0 0 0
1177 393 1 -8.4760000000000002e-01 -2.1748059568493550e+00 -1.2848923058902672e+01 2.3723454746973665e+00 0 0 0
953 318 2 4.2380000000000001e-01 -3.4781939012607621e+00 -1.2517166155095941e+01 3.5106253711992026e+00 0 0 0
1860 620 2 4.2380000000000001e-01 -4.9319011426478969e+00 -1.0540564580724064e+01 4.0079225845003315e+00 0 0 0
1858 620 1 -8.4760000000000002e-01 -5.7081926665258464e+00 -9.9298109207572676e+00 4.1639670627506424e+00 0 0 0
952 318 1 -8.4760000000000002e-01 -3.9526618349808604e+00 -1.2300202173894412e+01 4.3637413133387009e+00 0 0 0
954 318 2 4.2380000000000001e-01 -4.2541833790207662e+00 -1.3146930601357665e+01 4.8020724336181102e+00 0 0 0
1520 507 2 4.2380000000000001e-01 -6.1592829556774991e+00 -1.1544778677759748e+01 5.5032077892164670e+00 0 0 0
1179 393 2 4.2380000000000001e-01 -2.0228257477183331e+00 -1.3669708002259540e+01 1.8217262878802363e+00 0 0 0
1178 393 2 4.2380000000000001e-01 -1.7995918963181341e+00 -1.2053773384063939e+01 1.8959513066143279e+00 0 0 0
2091 697 2 4.2380000000000001e-01 -2.8649378797458134e+00 -1.1045876234173313e+01 4.9840365643379405e+00 0 0 0
1859 620 2 4.2380000000000001e-01 -5.5318807661374994e+00 -9.3661733963366416e+00 4.9709533419688441e+00 0 0 0
961 321 1 -8.4760000000000002e-01 -8.2509256739817758e+00 -1.0514522908592122e+01 3.4992192344035833e+00 0 0 0
963 321 2 4.2380000000000001e-01 -7.2993511481208424e+00 -1.0347196407304672e+01 3.7571201304846946e+00 0 0 0
1275 425 2 4.2380000000000001e-01 -6.5138007608593558e+00 -8.1588344070902874e+00 2.9850448168499786e+00 0 0 0
2678 893 2 4.2380000000000001e-01 -1.2768658364512011e+00 -1.0578066318857761e+01 -4.1543469665614730e-03 0 0 0
2677 893 1 -8.4760000000000002e-01 -1.0351114269439352e+00 -1.1047329406340062e+01 8.4516712350876610e-01 0 0 0
2679 893 2 4.2380000000000001e-01 -7.3290612387286602e-01 -1.0376377052055535e+01 1.5222884829974297e+00 0 0 0
2331 777 2 4.2380000000000001e-01 1.1886507154897896e+00 -1.3521909296732119e+01 1.5111486781167107e+00 0 0 0
1564 522 1 -8.4760000000000002e-01 -5.3213862447900817e-01 -9.3665114418613840e+00 2.9259720728620859e+00 0 0 0
2329 777 1 -8.4760000000000002e-01 1.4175943803132915e+00 -1.2556361535944761e+01 1.3875779854921741e+00 0 0 0
2330 777 2 4.2380000000000001e-01 6.0983218123736482e-01 -1.2060411895676761e+01 1.0689023132765751e+00 0 0 0
1802 601 2 4.2380000000000001e-01 2.3869678589793857e+00 -1.0835651830181662e+01 1.8910851879002708e+00 0 0 0
1803 601 2 4.2380000000000001e-01 1.9416377308151616e+00 -9.7629183377994178e+00 3.0389305780860019e+00 0 0 0
1801 601 1 -8.4760000000000002e-01 2.5755237559073976e+00 -9.9361155971846991e+00 2.2851425939457699e+00 0 0 0
1566 522 2 4.2380000000000001e-01 1.4298487210460625e-01 -9.5792304626192610e+00 3.6323459052401859e+00 0 0 0
2115 705 2 4.2380000000000001e-01 3.4950326755377947e+00 -1.2839212210734775e+01 2.0625850635162988e+00 0 0 0
1565 522 2 4.2380000000000001e-01 -5.7159221598648835e-01 -8.3765949360641692e+00 2.7899252953648048e+00 0 0 0
939 313 2 4.2380000000000001e-01 2.4253293640029234e+00 -8.3511312340269459e+00 1.8076032544973304e+00 0 0 0
2911 971 1 -8.4760000000000002e-01 1.0822125160408573e+00 -9.7455139596514098e+00 4.9590531994300759e+00 0 0 0
2090 697 2 4.2380000000000001e-01 -1.7340178957005081e+00 -1.0197407823741287e+01 4.1668790185207820e+00 0 0 0
1523 508 2 4.2380000000000001e-01 5.0209308510697834e+00 -1.0711554047135314e+01 4.1737503176019581e+00 0 0 0
1522 508 1 -8.4760000000000002e-01 5.0763245269572899e+00 -1.0323378503993682e+01 3.2538311426858306e+00 0 0 0
1524 508 2 4.2380000000000001e-01 4.1540641744333238e+00 -1.0141451642455433e+01 2.9127491853600085e+00 0 0 0
2689 897 1 -8.4760000000000002e-01 7.6536777097196760e+00 -1.0942374727568971e+01 3.1095396039571379e+00 0 0 0
2113 705 1 -8.4760000000000002e-01 4.3020501920460807e+00 -1.3308254391470687e+01 2.4213708899354862e+00 0 0 0
2690 897 2 4.2380000000000001e-01 6.6729239782998393e+00 -1.0836400534676349e+01 2.9455530534512433e+00 0 0 0
2691 897 2 4.2380000000000001e-01 7.8413461775279858e+00 -1.1875316246514529e+01 3.4167948348614110e+00 0 0 0
2114 705 2 4.2380000000000001e-01 4.7619442173829460e+00 -1.2719274397402602e+01 3.0859008381297066e+00 0 0 0
2929 977 1 -8.4760000000000002e-01 8.4949716236511659e+00 -1.3311193068843522e+01 3.9800118313280257e+00 0 0 0
3227 1076 2 4.2380000000000001e-01 8.2958076605458597e+00 -9.2537836311956916e+00 3.1227088571121060e+00 0 0 0
2931 977 2 4.2380000000000001e-01 9.1322050371101806e+00 -1.3864041105852875e+01 4.5169103513914308e+00 0 0 0
2771 924 2 4.2380000000000001e-01 1.0556516979190956e+01 -9.7071803923744344e+00 3.4246418911354604e+00 0 0 0
3279 1093 2 4.2380000000000001e-01 1.2251967308125835e+01 -1.0051806910155181e+01 5.4826492444049073e+00 0 0 0
3226 1076 1 -8.4760000000000002e-01 9.0931517585041455e+00 -8.6616595204335578e+00 3.0059551552211614e+00 0 0 0
2772 924 2 4.2380000000000001e-01 1.2011495488200465e+01 -1.0433221985354386e+01 3.2746432711964952e+00 0 0 0
2770 924 1 -8.4760000000000002e-01 1.1317834231764317e+01 -1.0121024835546223e+01 3.9237699486417261e+00 0 0 0
3473 1158 4 -3.2560000000000000e-01 4.5610295409485396e+01 -1.2524161044509704e+01 6.3021874345407776e+00 -1 0 0
3510 1170 4 -3.2560000000000000e-01 5.1762975834619539e+01 -1.3457853517158037e+01 2.6438859787893825e+00 -1 0 0
3508 1170 3 6.5120000000000000e-01 5.1192767413359974e+01 -1.2608410019272229e+01 2.1209050037776711e+00 -1 0 0
3627 1209 4 -3.2560000000000000e-01 4.8206941559561145e+01 -7.8010781581851125e+00 6.2055462315427796e+00 -1 0 0
3759 1253 4 -3.2560000000000000e-01 -5.8875710094567125e+01 -6.6716510399985971e+00 6.0673375654543076e+00 0 0 0
3853 1285 3 6.5120000000000000e-01 -3.8605652298511487e+01 -7.9149606009590991e+00 1.5280251969697638e+00 0 0 0
3854 1285 4 -3.2560000000000000e-01 -3.9446586427420321e+01 -7.1348141107972483e+00 1.4616757830726672e+00 0 0 0
33 11 2 4.2380000000000001e-01 -2.0590362044191391e+01 -1.5949516253522056e+00 5.2089972456963007e+00 0 0 0
31 11 1 -8.4760000000000002e-01 -1.9871083672002797e+01 -1.7703684821343557e+00 5.8811839353580373e+00 0 0 0
34 12 1 -8.4760000000000002e-01 -1.5175808597115161e+01 -7.7136040780677941e+00 1.1741588245538574e+00 0 0 0
35 12 2 4.2380000000000001e-01 -1.5272835258616510e+01 -7.3409014843467109e+00 2.5129447721375098e-01 0 0 0
32 11 2 4.2380000000000001e-01 -1.8977469417828480e+01 -1.6045800359947442e+00 5.4640895145573145e+00 0 0 0
340 114 1 -8.4760000000000002e-01 -1.6462791147928645e+01 -7.1691940510543857e+00 3.4991246980139095e+00 0 0 0
341 114 2 4.2380000000000001e-01 -1.7378868456396418e+01 -7.5610390860558248e+00 3.5843293543136663e+00 0 0 0
36 12 2 4.2380000000000001e-01 -1.4377490959972150e+01 -7.3049028671047846e+00 1.6164404095014724e+00 0 0 0
964 322 1 -8.4760000000000002e-01 -1.5595000496466302e+01 -3.7183200443345079e+00 5.8593277725043302e-01 0 0 0
965 322 2 4.2380000000000001e-01 -1.6280615096184398e+01 -3.0504704462573726e+00 8.7560420318264975e-01 0 0 0
966 322 2 4.2380000000000001e-01 -1.4703699548682911e+01 -3.2707925711357548e+00 5.1308437498402948e-01 0 0 0
342 114 2 4.2380000000000001e-01 -1.6190391400008448e+01 -7.1646244671780774e+00 2.5369683217755101e+00 0 0 0
1572 524 2 4.2380000000000001e-01 -1.2024510250523683e+01 -6.9798383322581525e+00 1.9471773988062253e+00 0 0 0
2143 715 1 -8.4760000000000002e-01 -1.0187871987322069e+01 -6.8553266426763528e+00 4.5610641946579253e+00 0 0 0
2144 715 2 4.2380000000000001e-01 -1.0550809077438196e+01 -7.7669817767323535e+00 4.7538375983405228e+00 0 0 0
434 145 2 4.2380000000000001e-01 -1.4236814990929565e+01 -5.0384044742405445e+00 2.4973118033758555e+00 0 0 0
435 145 2 4.2380000000000001e-01 -1.2953904316924230e+01 -5.4246898959710332e+00 3.4308755887904780e+00 0 0 0
433 145 1 -8.4760000000000002e-01 -1.3470047589934854e+01 -5.6702993575577514e+00 2.6103454674293154e+00 0 0 0
2145 715 2 4.2380000000000001e-01 -1.0748300072414542e+01 -6.1686846318005459e+00 5.0241497362590550e+00 0 0 0
674 225 2 4.2380000000000001e-01 -1.0861898235419185e+01 -4.2580316977876178e+00 4.5794245326789760e+00 0 0 0
673 225 1 -8.4760000000000002e-01 -1.1795502666815336e+01 -4.6107034762312145e+00 4.6427126229243019e+00 0 0 0
675 225 2 4.2380000000000001e-01 -1.2393428847333318e+01 -3.9048079719542139e+00 5.0224505959961245e+00 0 0 0
1226 409 2 4.2380000000000001e-01 -7.1901514445855694e+00 -4.7756641858740618e+00 3.2344031228740970e+00 0 0 0
1274 425 2 4.2380000000000001e-01 -7.1884953191654493e+00 -6.6939358295133964e+00 3.2409442480829216e+00 0 0 0
1273 425 1 -8.4760000000000002e-01 -6.6019064022168665e+00 -7.2275078368157439e+00 2.6316706186384566e+00 0 0 0
1227 409 2 4.2380000000000001e-01 -6.9802092404606224e+00 -4.9911983351199609e+00 1.6293814999867262e+00 0 0 0
1225 409 1 -8.4760000000000002e-01 -6.8783774587181332e+00 -4.3462660890969564e+00 2.3868099089910859e+00 0 0 0
698 233 2 4.2380000000000001e-01 -4.4061731093924266e+00 -6.9369256426390402e+00 1.7482831064647522e+00 0 0 0
345 115 2 4.2380000000000001e-01 -5.6677906303142818e+00 -3.1355094005783082e+00 2.0628414083137634e+00 0 0 0
697 233 1 -8.4760000000000002e-01 -3.6297954108314503e+00 -6.3401507950068545e+00 1.9510081675961846e+00 0 0 0
699 233 2 4.2380000000000001e-01 -2.8784357803414662e+00 -6.8853915597392428e+00 2.3227289265591380e+00 0 0 0
1254 418 2 4.2380000000000001e-01 -2.0509297774670370e+00 -3.4240534708368111e+00 6.8232280335979967e-01 0 0 0
411 137 2 4.2380000000000001e-01 -8.0848857481783245e+00 -2.8349978594994054e+00 1.9363057893829105e+00 0 0 0
1252 418 1 -8.4760000000000002e-01 -2.7255706120891974e+00 -3.7697730224281973e+00 1.3345059405289283e+00 0 0 0
1253 418 2 4.2380000000000001e-01 -2.9456705940634000e+00 -4.7200387889477540e+00 1.1141630919588976e+00 0 0 0
1851 617 2 4.2380000000000001e-01 -1.2452277114180221e+00 -6.1008261866547526e+00 3.6395862824483629e+00 0 0 0
1849 617 1 -8.4760000000000002e-01 -6.9844089214986360e-01 -6.6328082709567262e+00 2.9930382604450956e+00 0 0 0
1587 529 2 4.2380000000000001e-01 1.7038172284711297e+00 -4.4252149438624135e+00 4.4982740213882701e+00 0 0 0
1850 617 2 4.2380000000000001e-01 2.5688822020009483e-01 -6.3420915253047880e+00 3.0462365770931483e+00 0 0 0
2450 817 2 4.2380000000000001e-01 2.2381868970552263e+00 -6.5682757910582534e+00 3.0955498747669417e+00 0 0 0
2449 817 1 -8.4760000000000002e-01 2.2210280907753801e+00 -6.1802145698240727e+00 4.0170237289490816e+00 0 0 0
2451 817 2 4.2380000000000001e-01 2.3232609060994318e+00 -6.9133428344184242e+00 4.6893844692364617e+00 0 0 0
937 313 1 -8.4760000000000002e-01 2.1455442931878919e+00 -7.4028037774943680e+00 1.6579354295131976e+00 0 0 0
938 313 2 4.2380000000000001e-01 2.4820538440831652e+00 -7.0923624281812288e+00 7.6889803390326095e-01 0 0 0
1585 529 1 -8.4760000000000002e-01 1.5755264793703747e+00 -3.4475478678718146e+00 4.3318224122787186e+00 0 0 0
1586 529 2 4.2380000000000001e-01 6.0931566144953453e-01 -3.2642667762009610e+00 4.1505913532168623e+00 0 0 0
2675 892 2 4.2380000000000001e-01 5.2564915960004974e+00 -6.7108451430278206e+00 4.4406443530147754e+00 0 0 0
2674 892 1 -8.4760000000000002e-01 4.9509857685403666e+00 -5.9703894000244970e+00 3.8419862852989084e+00 0 0 0
2676 892 2 4.2380000000000001e-01 3.9584905547576437e+00 -6.0200845883742025e+00 3.7302630501449059e+00 0 0 0
2072 691 2 4.2380000000000001e-01 8.4231718409346783e+00 -6.3080260984012755e+00 5.9622643301749179e-01 0 0 0
2071 691 1 -8.4760000000000002e-01 8.2911715994265069e+00 -6.8836450666697138e+00 1.4032200758743385e+00 0 0 0
2714 905 2 4.2380000000000001e-01 7.6786855482526022e+00 -4.7945665239512270e+00 4.3842744223475734e+00 0 0 0
2764 922 1 -8.4760000000000002e-01 4.2929326189546453e+00 -3.6603224246179011e+00 2.0819635018061082e+00 0 0 0
2765 922 2 4.2380000000000001e-01 3.3196801623008092e+00 -3.7506636283187125e+00 2.2931935246039137e+00 0 0 0
2766 922 2 4.2380000000000001e-01 4.8326290920462460e+00 -4.0837141287539298e+00 2.8096119679635496e+00 0 0 0
2073 691 2 4.2380000000000001e-01 8.0611288250605444e+00 -6.3089310511367414e+00 2.1885553663152915e+00 0 0 0