LAMMPS data file via write_data, version 17 Nov 2016, timestep = 500000

3696 atoms
4 atom types
2464 bonds
2 bond types
1232 angles
2 angle types

 
-6.0000000000000000e+01 6.0000000000000000e+01 xlo xhi
-2.0000000000000000e+01 2.0000000000000000e+01 ylo yhi
-0.75000000000000e+01 3.0000000000000000e+01 zlo zhi

Bond Coeffs

1 1000 1.0
2 1000 1.149

Angle Coeffs

1 1000 109.47
2 147.70554 180.0

Masses

1 15.9994
2 1.008
3 12.0107
4 15.9994

Atoms

3641 1214 4 -3.2560000000000000e-01 5.9965274720677854e+01 -1.4603253728898963e+01 1.2504167792482366e+00 -1 0 0
3570 1190 4 -3.2560000000000000e-01 -5.5917784596440896e+01 -1.7233316712364324e+01 1.9193462036418358e+00 0 1 0
3569 1190 4 -3.2560000000000000e-01 -5.8002582580636528e+01 -1.6494077106440432e+01 1.2964929543709305e+00 0 1 0
3568 1190 3 6.5120000000000000e-01 -5.6960183588538712e+01 -1.6863696909402378e+01 1.6079195790063829e+00 0 1 0
3601 1201 3 6.5120000000000000e-01 -5.5216417642875960e+01 1.8954901654070433e+01 2.6119318042024520e+00 0 -1 0
3603 1201 4 -3.2560000000000000e-01 -5.4309048484937037e+01 1.9579161691136434e+01 2.9393178413872381e+00 0 -1 0
822 274 2 4.2380000000000001e-01 -1.9366842214004738e+01 -1.9855129048371399e+01 3.6234892370473752e+00 0 1 0
2 1 2 4.2380000000000001e-01 -1.6825828650551987e+01 -1.4948201702701970e+01 2.6620344453926053e+00 0 0 0
851 284 2 4.2380000000000001e-01 -1.3951557790026873e+01 1.9152573361966731e+01 4.9480470702610280e+00 0 0 0
852 284 2 4.2380000000000001e-01 -1.4726870235691793e+01 -1.9526299175533048e+01 4.3822966222498945e+00 0 1 0
869 290 2 4.2380000000000001e-01 -1.6863457970189419e+01 -1.6830683758010444e+01 4.5442304803363385e+00 0 0 0
850 284 1 -8.4760000000000002e-01 -1.3845468206766265e+01 -1.9888308479862193e+01 4.6856783240466431e+00 0 1 0
868 290 1 -8.4760000000000002e-01 -1.7017365353598468e+01 -1.7225917213840493e+01 3.6386350780043597e+00 0 0 0
870 290 2 4.2380000000000001e-01 -1.7700781121244361e+01 -1.7952987884434357e+01 3.7040455098570537e+00 0 0 0
1757 586 2 4.2380000000000001e-01 -1.5576904386680738e+01 -1.7551691813920648e+01 2.4727053859544190e+00 0 0 0
1756 586 1 -8.4760000000000002e-01 -1.4848109240902861e+01 -1.7908967091531583e+01 1.8885718297374945e+00 0 0 0
821 274 2 4.2380000000000001e-01 -1.9900893038242920e+01 -1.8471318386542329e+01 4.3064571465707360e+00 0 1 0
820 274 1 -8.4760000000000002e-01 -1.9110986876301695e+01 -1.8927984920751914e+01 3.8971847044734305e+00 0 1 0
3 1 2 4.2380000000000001e-01 -1.5286782065280709e+01 -1.4406822350836290e+01 2.7315427315052254e+00 0 0 0
1 1 1 -8.4760000000000002e-01 -1.6249159727017826e+01 -1.4140690366450038e+01 2.7860441000755047e+00 0 0 0
268 90 1 -8.4760000000000002e-01 -1.3764245455169251e+01 -1.5122272797685858e+01 2.6378003848033789e+00 0 1 0
269 90 2 4.2380000000000001e-01 -1.3553137429888263e+01 -1.5481314876906291e+01 3.5469330412463376e+00 0 1 0
270 90 2 4.2380000000000001e-01 -1.2921463247742089e+01 -1.4811994742716925e+01 2.1980128502495933e+00 0 1 0
326 109 2 4.2380000000000001e-01 -1.2593732571703958e+01 -1.5080287220317810e+01 5.6565496183304997e+00 0 0 0
327 109 2 4.2380000000000001e-01 -1.2616350758538452e+01 -1.6695315822374134e+01 5.4162752706270529e+00 0 0 0
866 289 2 4.2380000000000001e-01 -1.0619398918642531e+01 -1.6866576488091596e+01 1.1482170800512070e+00 0 0 0
865 289 1 -8.4760000000000002e-01 -1.0604845756744073e+01 -1.5866828755615604e+01 1.1311092780920466e+00 0 0 0
867 289 2 4.2380000000000001e-01 -9.7293615375719700e+00 -1.5552458544482473e+01 7.6414041233812313e-01 0 0 0
325 109 1 -8.4760000000000002e-01 -1.3059905657492836e+01 -1.5829263713834699e+01 5.1856814135797205e+00 0 0 0
1225 409 1 -8.4760000000000002e-01 -1.0157763548249006e+01 -1.8538844985755915e+01 1.1517809270384141e+00 0 0 0
1226 409 2 4.2380000000000001e-01 -9.4352997705248498e+00 -1.8888696349882590e+01 1.7481450045072406e+00 0 0 0
1227 409 2 4.2380000000000001e-01 -1.0971837720834028e+01 -1.9112469372701320e+01 1.2425741687005836e+00 0 0 0
315 105 2 4.2380000000000001e-01 -9.3578271874209342e+00 -1.3798825194779779e+01 3.3403188315817438e+00 0 0 0
587 196 2 4.2380000000000001e-01 -1.3398309929647574e+01 -1.9527827091795345e+01 1.4816019991207177e+00 0 0 0
313 105 1 -8.4760000000000002e-01 -1.0022487561552271e+01 -1.4493234712996690e+01 3.6159805883949638e+00 0 0 0
586 196 1 -8.4760000000000002e-01 -1.2626455314272855e+01 -1.9983925356366438e+01 1.9245634260869706e+00 0 0 0
314 105 2 4.2380000000000001e-01 -1.0255361865477692e+01 -1.5063148223587683e+01 2.8279652655635479e+00 0 0 0
588 196 2 4.2380000000000001e-01 -1.2799541451861788e+01 1.9946529342225698e+01 2.9069917288280056e+00 0 -1 0
629 210 2 4.2380000000000001e-01 -6.3790061871091028e+00 -1.6528195670964177e+01 2.7588637726038074e+00 0 0 0
628 210 1 -8.4760000000000002e-01 -7.1086886745265723e+00 -1.6797822404992306e+01 3.3872465316397142e+00 0 0 0
630 210 2 4.2380000000000001e-01 -7.5962222651001809e+00 -1.5983107528836369e+01 3.7011224063619022e+00 0 0 0
2067 689 2 4.2380000000000001e-01 -4.4294435437221820e+00 -1.8510863606654436e+01 1.4671090783183647e+00 0 0 0
1155 385 2 4.2380000000000001e-01 -6.5671210241511897e+00 -1.8101374551154116e+01 4.9141809054175498e+00 0 0 0
1154 385 2 4.2380000000000001e-01 -6.0854384045952461e+00 -1.7468419758213518e+01 6.3403427055690065e+00 0 0 0
1153 385 1 -8.4760000000000002e-01 -6.4843281011688640e+00 -1.8270703933394522e+01 5.8962401135685258e+00 0 0 0
1955 652 2 4.2380000000000001e-01 -7.7739493909195367e+00 -1.8279666636124823e+01 2.9886908176243354e+00 0 1 0
2643 881 2 4.2380000000000001e-01 -3.1183136282691124e+00 -1.5775151276753020e+01 4.2608257936705130e+00 0 0 0
1236 412 2 4.2380000000000001e-01 -4.8054284130909242e+00 -1.5012301841340330e+01 2.3050780435517719e+00 0 0 0
1234 412 1 -8.4760000000000002e-01 -5.1406329273962470e+00 -1.5702428960417993e+01 1.6637037881416414e+00 0 0 0
1235 412 2 4.2380000000000001e-01 -4.5668676245716640e+00 -1.6519290516183226e+01 1.7231224383065555e+00 0 0 0
2065 689 1 -8.4760000000000002e-01 -3.7850081306805436e+00 -1.8075857629627865e+01 2.0959494352206636e+00 0 0 0
2066 689 2 4.2380000000000001e-01 -2.9194783452356541e+00 -1.8576603752040416e+01 2.0853895395527204e+00 0 0 0
1156 386 1 -8.4760000000000002e-01 -7.9912671868534639e+00 -1.5258016141941454e+01 4.6491298284224808e-01 0 0 0
1158 386 2 4.2380000000000001e-01 -7.0746017091836748e+00 -1.5463582281187589e+01 8.0759995449984245e-01 0 0 0
2641 881 1 -8.4760000000000002e-01 -3.2451115344739692e+00 -1.4846904037852440e+01 3.9111877657680680e+00 0 0 0
1181 394 2 4.2380000000000001e-01 -2.8956964923885713e+00 -1.3285990297432383e+01 9.6153379421323748e-01 0 0 0
1788 596 2 4.2380000000000001e-01 -7.1875158140316673e+00 -1.2473880886329267e+01 3.2540299986353522e+00 0 0 0
1786 596 1 -8.4760000000000002e-01 -8.1742472628172198e+00 -1.2325197328914903e+01 3.3189528584935664e+00 0 0 0
1737 579 2 4.2380000000000001e-01 -4.5357827771303860e+00 -1.3587886476041879e+01 3.9215091467036070e+00 0 0 0
1755 585 2 4.2380000000000001e-01 -8.1134222578991744e-01 -1.4538789423269973e+01 1.6026508338214647e+00 0 0 0
1753 585 1 -8.4760000000000002e-01 -1.7563983267070968e+00 -1.4789603383234505e+01 1.3930590407900301e+00 0 0 0
1754 585 2 4.2380000000000001e-01 -1.7932960544480494e+00 -1.5750679098623865e+01 1.1192488383205368e+00 0 0 0
2048 683 2 4.2380000000000001e-01 -1.2763919417125116e+00 -1.7784379480868406e+01 5.3912048153082521e+00 0 0 0
1514 505 2 4.2380000000000001e-01 9.8625964431636060e-01 -1.8409238837173266e+01 1.1631468062535135e+00 0 0 0
1513 505 1 -8.4760000000000002e-01 4.6848955269340675e-01 -1.7568148624240411e+01 1.3196120929126527e+00 0 0 0
2693 898 2 4.2380000000000001e-01 9.4242496303188483e-01 -1.5561638403283318e+01 6.7486682171359060e+00 0 0 0
2041 681 1 -8.4760000000000002e-01 -1.5267007972024573e+00 -1.9290104649408313e+01 2.3897433506893941e+00 0 0 0
1515 505 2 4.2380000000000001e-01 1.1005235095813424e+00 -1.6796955387280565e+01 1.3957644212288312e+00 0 0 0
2042 681 2 4.2380000000000001e-01 -7.8043615081685769e-01 -1.8693397197743689e+01 2.0947360716556611e+00 0 0 0
1160 387 2 4.2380000000000001e-01 1.4180547856014323e+00 1.9798352725552657e+01 2.5946583733540711e+00 0 -1 0
1159 387 1 -8.4760000000000002e-01 1.2571667256328831e+00 1.9878601612261974e+01 1.6109535658322864e+00 0 -1 0
2043 681 2 4.2380000000000001e-01 -1.2628756847111304e+00 1.9754788099301660e+01 2.2550813863039298e+00 0 -1 0
2049 683 2 4.2380000000000001e-01 -1.5710847746934067e+00 -1.7683999866744035e+01 3.7881865798043814e+00 0 0 0
2047 683 1 -8.4760000000000002e-01 -1.6875715159941631e+00 -1.7226953915074674e+01 4.6699502858298576e+00 0 0 0
2668 890 1 -8.4760000000000002e-01 1.3430037696324346e+00 -1.4475321441773419e+01 3.3206014118722851e+00 0 0 0
2692 898 1 -8.4760000000000002e-01 1.7925149883337375e+00 -1.5556721522353953e+01 6.2220537726281409e+00 0 0 0
2694 898 2 4.2380000000000001e-01 1.6210261397315180e+00 -1.5170075567431233e+01 5.3159072122710516e+00 0 0 0
2308 770 1 -8.4760000000000002e-01 2.8162732102394896e+00 -1.6417498501115038e+01 2.2904778092266560e+00 0 0 0
2309 770 2 4.2380000000000001e-01 3.5322476730404295e+00 -1.6037854832723539e+01 1.7046013259410149e+00 0 0 0
2310 770 2 4.2380000000000001e-01 3.1051996483609026e+00 -1.7311363223208133e+01 2.6332529075811073e+00 0 0 0
2622 874 2 4.2380000000000001e-01 5.8738116959935240e+00 -1.8069035939353562e+01 2.5857807589817736e+00 0 0 0
2620 874 1 -8.4760000000000002e-01 6.6929013933046777e+00 -1.7522968946218398e+01 2.4100812915180154e+00 0 0 0
2621 874 2 4.2380000000000001e-01 6.6724990186247197e+00 -1.7184698260905961e+01 1.4692536311223023e+00 0 0 0
2597 866 2 4.2380000000000001e-01 6.0025602835689735e+00 -1.5043963654147701e+01 7.3322601730570325e-01 0 0 0
2596 866 1 -8.4760000000000002e-01 5.0081144677455844e+00 -1.5118025855159660e+01 8.0800776489572734e-01 0 0 0
2575 859 1 -8.4760000000000002e-01 4.1544722150073818e+00 -1.8569189051232460e+01 3.2785741707107015e+00 0 1 0
2576 859 2 4.2380000000000001e-01 3.8350277870016076e+00 -1.8122813384700233e+01 4.1144593432936194e+00 0 1 0
2577 859 2 4.2380000000000001e-01 4.2281537077752338e+00 -1.9554264107128461e+01 3.4340269544586910e+00 0 1 0
2669 890 2 4.2380000000000001e-01 1.9367171609019578e+00 -1.5249121253002983e+01 3.0998339750335733e+00 0 0 0
2360 787 2 4.2380000000000001e-01 8.1534271966866534e+00 -1.6660746738641908e+01 3.2985512943709212e+00 0 0 0
2598 866 2 4.2380000000000001e-01 4.5851689984137796e+00 -1.4275030744182853e+01 4.7567695238972924e-01 0 0 0
3227 1076 2 4.2380000000000001e-01 1.1436047509601689e+01 -1.6870197320779159e+01 2.1822756707155708e+00 0 0 0
2305 769 1 -8.4760000000000002e-01 1.2687361220618127e+01 -1.8007265229796154e+01 2.6429650997911316e+00 0 0 0
2307 769 2 4.2380000000000001e-01 1.2822105409593748e+01 -1.8859469146379375e+01 2.1374357888728444e+00 0 0 0
2306 769 2 4.2380000000000001e-01 1.2768223518197894e+01 -1.8185133662181869e+01 3.6236914171655403e+00 0 0 0
3195 1065 2 4.2380000000000001e-01 1.1528239580391562e+01 1.9864829169814364e+01 4.0683525311889248e+00 0 -1 0
2359 787 1 -8.4760000000000002e-01 8.8800582658803915e+00 -1.6458606276942159e+01 3.9551687804510411e+00 0 0 0
2361 787 2 4.2380000000000001e-01 9.6695101316865948e+00 -1.6079507456990523e+01 3.4724501953661306e+00 0 0 0
2956 986 1 -8.4760000000000002e-01 1.2426442464482848e+01 -1.8561608881167100e+01 5.3246031494837922e+00 0 0 0
2933 978 2 4.2380000000000001e-01 8.8382072474457587e+00 1.9994256135366566e+01 5.9568823930315640e+00 0 -1 0
3458 1153 4 -3.2560000000000000e-01 3.2540295920324212e+01 1.9843913020968905e+01 1.4710469366854693e+00 -1 -1 0
3457 1153 3 6.5120000000000000e-01 3.3500889019096668e+01 -1.9579209550379424e+01 1.7253584207025519e+00 -1 0 0
3459 1153 4 -3.2560000000000000e-01 3.4461482117869124e+01 -1.9002332121727754e+01 1.9796699047196342e+00 -1 0 0
3481 1161 3 6.5120000000000000e-01 4.4032015161261938e+01 -1.7298304941100557e+01 1.2502990121499578e+00 -1 0 0
3483 1161 4 -3.2560000000000000e-01 4.4141634090049344e+01 -1.6155043150453455e+01 1.2840209411855859e+00 -1 0 0
3482 1161 4 -3.2560000000000000e-01 4.3922396232474533e+01 -1.8441566731747660e+01 1.2165770831143297e+00 -1 0 0
3640 1214 3 6.5120000000000000e-01 5.9033770799427657e+01 -1.5271456266585803e+01 1.3279204135138367e+00 -1 0 0
3642 1214 4 -3.2560000000000000e-01 5.8102266878177460e+01 -1.5939658804272643e+01 1.4054240477794369e+00 -1 0 0
3577 1193 3 6.5120000000000000e-01 5.5952211865054871e+01 1.8768472155501708e+01 1.4527722345633143e+00 -1 -1 0
3578 1193 4 -3.2560000000000000e-01 5.6699674466601515e+01 1.9624272549116000e+01 1.6233780538625016e+00 -1 -1 0
339 113 2 4.2380000000000001e-01 -1.9040451235838802e+01 -1.0103961756646132e+01 7.2662941659956983e+00 0 0 0
337 113 1 -8.4760000000000002e-01 -1.8405815447465489e+01 -1.0599238179043764e+01 6.6730774453675741e+00 0 0 0
603 201 2 4.2380000000000001e-01 -1.6175234954782077e+01 -1.2448560881702589e+01 1.3632331114571761e+00 0 0 0
602 201 2 4.2380000000000001e-01 -1.4888331958240395e+01 -1.1471052282167213e+01 1.1288295888163440e+00 0 0 0
601 201 1 -8.4760000000000002e-01 -1.5854214257825454e+01 -1.1615060066698781e+01 9.1357824423846390e-01 0 0 0
1203 401 2 4.2380000000000001e-01 -1.5719849851331855e+01 -1.0348353023715001e+01 3.0454851102856879e+00 0 0 0
1539 513 2 4.2380000000000001e-01 -1.7199350456592875e+01 -9.2364191080741342e+00 1.4987830070694983e+00 0 0 0
1201 401 1 -8.4760000000000002e-01 -1.6343642592106825e+01 -1.0214810471830850e+01 3.8155606906625232e+00 0 0 0
290 97 2 4.2380000000000001e-01 -1.6341601660768820e+01 -1.3557386645567123e+01 4.4655812244504691e+00 0 0 0
338 113 2 4.2380000000000001e-01 -1.7468268146237754e+01 -1.0321119408343614e+01 6.8820152527285936e+00 0 0 0
1537 513 1 -8.4760000000000002e-01 -1.6795530932947617e+01 -8.4358139800416669e+00 1.0561021629040501e+00 0 0 0
1538 513 2 4.2380000000000001e-01 -1.5887236403290441e+01 -8.6694874200160257e+00 7.0911834361934845e-01 0 0 0
894 298 2 4.2380000000000001e-01 -1.0738727956384380e+01 -1.1485375028477124e+01 3.2905358512280558e-01 0 0 0
892 298 1 -8.4760000000000002e-01 -1.0897441182908500e+01 -1.0654401989666713e+01 8.6221520845713773e-01 0 0 0
893 298 2 4.2380000000000001e-01 -1.0021115885196085e+01 -1.0281877262093440e+01 1.1676318090794817e+00 0 0 0
1250 417 2 4.2380000000000001e-01 -1.2579425984343079e+01 -1.0746046864730083e+01 1.4274651451166269e+00 0 0 0
1249 417 1 -8.4760000000000002e-01 -1.3518151210991606e+01 -1.0497178572384424e+01 1.6659174923867397e+00 0 0 0
1251 417 2 4.2380000000000001e-01 -1.3659569539209265e+01 -9.5229448218621275e+00 1.4902058983259576e+00 0 0 0
632 211 2 4.2380000000000001e-01 -1.0998496518116854e+01 -9.7465558748280934e+00 2.5039001284111002e+00 0 0 0
633 211 2 4.2380000000000001e-01 -1.0342127228252963e+01 -8.4436349755439899e+00 3.2374966671381249e+00 0 0 0
631 211 1 -8.4760000000000002e-01 -1.1067877613195831e+01 -9.1297184778995710e+00 3.2879268431320243e+00 0 0 0
1230 410 2 4.2380000000000001e-01 -7.7235634191244475e+00 -1.1404328344506833e+01 5.9015668512245414e+00 0 0 0
627 209 2 4.2380000000000001e-01 -1.3818550997431364e+01 -7.4534728015440379e+00 2.3443636602840594e+00 0 0 0
1228 410 1 -8.4760000000000002e-01 -8.1850300151566184e+00 -1.2231866825343380e+01 6.2213069831773939e+00 0 0 0
1157 386 2 4.2380000000000001e-01 -8.2091568402381085e+00 -1.5872386446446759e+01 -2.9342284506645466e-01 0 0 0
1206 402 2 4.2380000000000001e-01 -8.4093704283057296e+00 -1.0875561714496369e+01 2.5228193094087414e+00 0 0 0
1204 402 1 -8.4760000000000002e-01 -8.4776078176793703e+00 -1.0005922798661278e+01 2.0339029455420436e+00 0 0 0
1205 402 2 4.2380000000000001e-01 -7.6016263788684579e+00 -9.5261184251139284e+00 2.0833426257958640e+00 0 0 0
2642 881 2 4.2380000000000001e-01 -2.3749057334204493e+00 -1.4501176409775503e+01 3.5601688617228633e+00 0 0 0
2121 707 2 4.2380000000000001e-01 -4.0425764719155399e+00 -1.1138276646670688e+01 3.2566085626987094e+00 0 0 0
2377 793 1 -8.4760000000000002e-01 -2.1741266118522606e+00 -1.1523209726331661e+01 4.7605093283513398e+00 0 0 0
2120 707 2 4.2380000000000001e-01 -4.1178174869957997e+00 -1.0797269739287707e+01 1.6614038149416102e+00 0 0 0
2119 707 1 -8.4760000000000002e-01 -4.1884082410364032e+00 -1.0414237976704257e+01 2.5824378068746956e+00 0 0 0
2378 793 2 4.2380000000000001e-01 -2.0638941205893495e+00 -1.0533204415632298e+01 4.8484768374500389e+00 0 0 0
1180 394 1 -8.4760000000000002e-01 -3.6024857983026544e+00 -1.2578676035192162e+01 9.7400020817476118e-01 0 0 0
1182 394 2 4.2380000000000001e-01 -4.5002416815088120e+00 -1.3006386398278758e+01 1.0791934378859294e+00 0 0 0
2090 697 2 4.2380000000000001e-01 -6.3506876175284015e+00 -9.4873128978643617e+00 5.5795422030976232e+00 0 0 0
1787 596 2 4.2380000000000001e-01 -8.4426511208325792e+00 -1.2285036631886976e+01 4.2814218124950454e+00 0 0 0
2379 793 2 4.2380000000000001e-01 -3.0020720866996200e+00 -1.1810493433918493e+01 5.2421518000406069e+00 0 0 0
1470 490 2 4.2380000000000001e-01 -1.8931093036710844e+00 -1.1548273254332349e+01 9.8626341866088596e-01 0 0 0
1468 490 1 -8.4760000000000002e-01 -9.7558589036726151e-01 -1.1160723099222619e+01 1.0752749876490288e+00 0 0 0
1497 499 2 4.2380000000000001e-01 2.6982673220102582e-01 -1.2362596735853408e+01 8.6651331619657290e-01 0 0 0
1495 499 1 -8.4760000000000002e-01 9.0798279075867416e-01 -1.3121614083057306e+01 9.9541990124839541e-01 0 0 0
2930 977 2 4.2380000000000001e-01 2.6427822274746644e+00 -1.0575044002815170e+01 1.0235351925580871e+00 0 0 0
1469 490 2 4.2380000000000001e-01 -9.0375574014744142e-01 -1.0670204086487223e+01 1.9437400287787745e+00 0 0 0
1207 403 1 -8.4760000000000002e-01 1.3443063136961647e-01 -1.2935736555330188e+01 5.4271516491675316e+00 0 0 0
1496 499 2 4.2380000000000001e-01 1.5632257960140983e+00 -1.3138106292076051e+01 2.4018178574738192e-01 0 0 0
2670 890 2 4.2380000000000001e-01 1.3823706040182144e+00 -1.3803374477891598e+01 2.5810457083715637e+00 0 0 0
2929 977 1 -8.4760000000000002e-01 2.1207686763345550e+00 -9.8925506715110192e+00 1.5351060138052077e+00 0 0 0
1209 403 2 4.2380000000000001e-01 -7.3791398019709065e-01 -1.2485403553262669e+01 5.2369347676365132e+00 0 0 0
1208 403 2 4.2380000000000001e-01 3.4376043199411604e-01 -1.3580798072708554e+01 4.6922525585652721e+00 0 0 0
2931 977 2 4.2380000000000001e-01 1.3594555929248877e+00 -1.0338938774266436e+01 2.0053266501533806e+00 0 0 0
2955 985 2 4.2380000000000001e-01 4.6975278121416331e+00 -1.1317461482968552e+01 6.5158310568878219e-01 0 0 0
2953 985 1 -8.4760000000000002e-01 3.8233070376845975e+00 -1.1799135526320015e+01 7.1268353096713866e-01 0 0 0
2954 985 2 4.2380000000000001e-01 3.7864011499450227e+00 -1.2315614321545961e+01 1.5681878322608902e+00 0 0 0
2388 796 2 4.2380000000000001e-01 3.2758333717681785e+00 -1.3004083852065939e+01 3.8730876624038588e+00 0 0 0
2387 796 2 4.2380000000000001e-01 4.1978127228080382e+00 -1.1761069135819623e+01 3.3520627744654692e+00 0 0 0
2382 794 2 4.2380000000000001e-01 7.1641832749690995e+00 -1.0983966690901887e+01 1.1959020428890910e+00 0 0 0
3439 1147 1 -8.4760000000000002e-01 8.1026555123229880e+00 -1.5369194309894377e+01 1.1191157042942157e+00 0 1 0
3441 1147 2 4.2380000000000001e-01 7.7034267507901966e+00 -1.4830632765065419e+01 1.8610963337559552e+00 0 1 0
2386 796 1 -8.4760000000000002e-01 4.1506997302579007e+00 -1.2754315637387570e+01 3.4580899080493137e+00 0 0 0
2380 794 1 -8.4760000000000002e-01 6.4092239151663284e+00 -1.0539040948247282e+01 7.1415256746702060e-01 0 0 0
2381 794 2 4.2380000000000001e-01 6.7142301785846827e+00 -9.6544989506223065e+00 3.6122674847216446e-01 0 0 0
2727 909 2 4.2380000000000001e-01 3.6408627943036862e+00 -9.7228470840482739e+00 2.7045678367086889e+00 0 0 0
2726 909 2 4.2380000000000001e-01 5.0946015647322049e+00 -9.2253521365894944e+00 3.2575061759527366e+00 0 0 0
2725 909 1 -8.4760000000000002e-01 4.2642162428304564e+00 -9.7333393981710170e+00 3.4864366440888865e+00 0 0 0
3366 1122 2 4.2380000000000001e-01 7.0086996978948291e+00 -1.4748407413846442e+01 4.1828287383601435e+00 0 0 0
2700 900 2 4.2380000000000001e-01 8.5283381165289818e+00 -1.2141095139055004e+01 2.1827361736173589e+00 0 0 0
3440 1147 2 4.2380000000000001e-01 9.0031620532259442e+00 -1.5703560520971918e+01 1.3971214716456222e+00 0 1 0
3226 1076 1 -8.4760000000000002e-01 1.0862737877528092e+01 -1.6058766445708496e+01 2.0687151108644710e+00 0 0 0
3196 1066 1 -8.4760000000000002e-01 1.1686240513017024e+01 -1.3886329765326780e+01 3.3691217738797916e+00 0 0 0
3198 1066 2 4.2380000000000001e-01 1.2241546250890805e+01 -1.4531547202022105e+01 3.8938096744156949e+00 0 0 0
2411 804 2 4.2380000000000001e-01 9.9054963239578946e+00 -1.3104557823283589e+01 6.0744273671024285e-01 0 0 0
3228 1076 2 4.2380000000000001e-01 1.1432365007189452e+01 -1.5238451591827346e+01 2.1194024234358322e+00 0 0 0
3197 1066 2 4.2380000000000001e-01 1.1909875030401063e+01 -1.2951892537205701e+01 3.6462763685301511e+00 0 0 0
2673 891 2 4.2380000000000001e-01 1.3359175473533094e+01 -1.1029335700548888e+01 4.2886167437530789e+00 0 0 0
2671 891 1 -8.4760000000000002e-01 1.2631586135641463e+01 -1.1317694572499637e+01 3.6661474474390250e+00 0 0 0
2672 891 2 4.2380000000000001e-01 1.2002860144502232e+01 -1.0555406821201659e+01 3.5124561585282228e+00 0 0 0
2410 804 1 -8.4760000000000002e-01 1.0027208929212913e+01 -1.2541792098445207e+01 1.4250494763284816e+00 0 0 0
2412 804 2 4.2380000000000001e-01 1.0583211928125987e+01 -1.3038267098353957e+01 2.0916615689770275e+00 0 0 0
3471 1157 4 -3.2560000000000000e-01 4.3475541666385702e+01 -9.8864351351826034e+00 4.4945049717262009e+00 -1 0 0
3508 1170 3 6.5120000000000000e-01 5.3768618491402563e+01 -9.5763542302297235e+00 2.8022886345972728e+00 -1 0 0
3509 1170 4 -3.2560000000000000e-01 5.2825777054293233e+01 -8.9495284571811649e+00 2.9980958732573533e+00 -1 0 0
3510 1170 4 -3.2560000000000000e-01 5.4711459928511893e+01 -1.0203180003278282e+01 2.6064813959371924e+00 -1 0 0
578 193 2 4.2380000000000001e-01 -1.8951661177648752e+01 -9.9129473655691598e+00 5.1507905546063615e+00 0 0 0
579 193 2 4.2380000000000001e-01 -1.7941727077364074e+01 -9.5821503966496877e+00 3.9109543256890644e+00 0 0 0
173 58 2 4.2380000000000001e-01 -1.9787859501104595e+01 -7.8387319997871261e+00 4.4475196566852331e+00 0 0 0
172 58 1 -8.4760000000000002e-01 -2.0181221391877486e+01 -7.0195197026738638e+00 4.0301976764996823e+00 0 0 0
174 58 2 4.2380000000000001e-01 -2.0806971387555151e+01 -7.2864834879079163e+00 3.2972772246204145e+00 0 0 0
51 17 2 4.2380000000000001e-01 -1.7600144047319791e+01 -5.5857892338920738e+00 1.8432514360962102e+00 0 0 0
50 17 2 4.2380000000000001e-01 -1.6915885040896327e+01 -7.0673225954155381e+00 1.9018680456992707e+00 0 0 0
49 17 1 -8.4760000000000002e-01 -1.7052978491293096e+01 -6.2109886058915356e+00 2.3997610906840490e+00 0 0 0
770 257 2 4.2380000000000001e-01 -2.2383552599392743e+01 -1.9079066688957467e+00 5.7637855941970759e+00 0 0 0
100 34 1 -8.4760000000000002e-01 -1.4547294511514389e+01 -4.9069602811415454e+00 2.8892449685296024e+00 0 0 0
577 193 1 -8.4760000000000002e-01 -1.8892144026774655e+01 -9.5513638209951282e+00 4.2203524593818011e+00 0 0 0
101 34 2 4.2380000000000001e-01 -1.5333400710577239e+01 -5.5222237155778613e+00 2.8301860992499774e+00 0 0 0
102 34 2 4.2380000000000001e-01 -1.3826978748268848e+01 -5.3377404918063522e+00 3.4329164868378363e+00 0 0 0
468 156 2 4.2380000000000001e-01 -1.6720275431743232e+01 -3.6721967853698856e-02 5.7435748082308526e+00 0 0 0
625 209 1 -8.4760000000000002e-01 -1.3990225850719803e+01 -7.8622243032272108e+00 1.4480281479226773e+00 0 0 0
626 209 2 4.2380000000000001e-01 -1.3380057249977829e+01 -7.4501172833412790e+00 7.7137307860794946e-01 0 0 0
649 217 1 -8.4760000000000002e-01 -9.5902361677816330e+00 -4.8897546261115759e+00 4.4878363006712902e+00 0 0 0
651 217 2 4.2380000000000001e-01 -9.8560026602048723e+00 -3.9341865270431677e+00 4.3603102717680127e+00 0 0 0
650 217 2 4.2380000000000001e-01 -1.0305786496193022e+01 -5.3698542732167649e+00 4.9952730517642996e+00 0 0 0
674 225 2 4.2380000000000001e-01 -1.1819818281247162e+01 -2.9465217853457326e+00 8.0583602194333037e-01 0 0 0
462 154 2 4.2380000000000001e-01 -8.0537059289417172e+00 -5.5088913122478624e+00 3.6986150151587194e+00 0 0 0
1010 337 2 4.2380000000000001e-01 -8.4709316402379944e+00 -4.3581612211471619e+00 1.7020319286172869e+00 0 0 0
967 323 1 -8.4760000000000002e-01 -1.0479970400875547e+00 -6.9404193546932884e+00 3.5987634317275008e+00 0 0 0
2091 697 2 4.2380000000000001e-01 -6.9189345163483962e+00 -9.6428130321555710e+00 4.0565385003060390e+00 0 0 0
2089 697 1 -8.4760000000000002e-01 -6.6725316949965396e+00 -1.0136619633618210e+01 4.8904724296324362e+00 0 0 0
460 154 1 -8.4760000000000002e-01 -7.1962208108401349e+00 -5.2603701235246865e+00 3.2481024187866168e+00 0 0 0
461 154 2 4.2380000000000001e-01 -6.4267604328683019e+00 -5.5033614822878887e+00 3.8387680825066752e+00 0 0 0
1855 619 1 -8.4760000000000002e-01 -6.2099196106858328e+00 -8.8224945269964348e+00 2.3682286744071681e+00 0 0 0
1856 619 2 4.2380000000000001e-01 -6.0018877544171740e+00 -7.8765797116650980e+00 2.1192951312393169e+00 0 0 0
1784 595 2 4.2380000000000001e-01 -5.6790482826498359e+00 -4.4880313171291100e+00 2.2792162254073673e+00 0 0 0
1857 619 2 4.2380000000000001e-01 -5.3631109646001551e+00 -9.3536418306088418e+00 2.3965618224816709e+00 0 0 0
1783 595 1 -8.4760000000000002e-01 -4.7575590553133047e+00 -4.3350691084369881e+00 1.9222005862334626e+00 0 0 0
1034 345 2 4.2380000000000001e-01 -4.4538762801245957e+00 -5.4687783661489222e+00 5.4924191392780592e+00 0 0 0
2403 801 2 4.2380000000000001e-01 -2.7584696058361073e+00 -6.7128000736035212e+00 9.1009647175313879e-01 0 0 0
2402 801 2 4.2380000000000001e-01 -2.9572104711345299e+00 -5.2514822089340871e+00 1.6112935020936840e+00 0 0 0
1785 595 2 4.2380000000000001e-01 -4.6495656838778148e+00 -3.3707649233211092e+00 1.6804936016550398e+00 0 0 0
969 323 2 4.2380000000000001e-01 -1.4010123106708749e+00 -6.4568164382395254e+00 2.7978180238298087e+00 0 0 0
2401 801 1 -8.4760000000000002e-01 -2.3062097110604465e+00 -5.9888382747371800e+00 1.4310047264964463e+00 0 0 0
1033 345 1 -8.4760000000000002e-01 -5.3740924510036594e+00 -5.5268008325311397e+00 5.1053331123439980e+00 0 0 0
1232 411 2 4.2380000000000001e-01 2.2097608988040540e+00 -8.1537453164527438e+00 8.7221641037534359e-01 0 0 0
1231 411 1 -8.4760000000000002e-01 2.3617084008637352e+00 -7.1822733727850583e+00 6.9013340928971056e-01 0 0 0
2618 873 2 4.2380000000000001e-01 1.2218159690821584e+00 -5.7234156285901001e+00 7.6571622581507082e-01 0 0 0
2617 873 1 -8.4760000000000002e-01 4.0951557010644657e-01 -5.1773196589599859e+00 9.7052651309977955e-01 0 0 0
2619 873 2 4.2380000000000001e-01 -4.0092925044185601e-01 -5.6356751712710658e+00 6.0575697862563893e-01 0 0 0
1781 594 2 4.2380000000000001e-01 -2.6372851113346696e-02 -3.7008432396369586e+00 2.0879184679123473e+00 0 0 0
1780 594 1 -8.4760000000000002e-01 -3.5059763599748039e-01 -2.8796260353204550e+00 2.5574720774197428e+00 0 0 0
2691 897 2 4.2380000000000001e-01 1.3990067388121319e+00 -3.5685423999511219e+00 8.2647735847322357e-01 0 0 0
2690 897 2 4.2380000000000001e-01 1.8318060594486647e+00 -2.0036999761620939e+00 6.5161156631638906e-01 0 0 0
2689 897 1 -8.4760000000000002e-01 2.1087018785761669e+00 -2.8911501824193637e+00 1.0200689407352486e+00 0 0 0
1782 594 2 4.2380000000000001e-01 1.7281685701144611e-01 -2.7484871356397154e+00 3.3993789924636388e+00 0 0 0
2100 700 2 4.2380000000000001e-01 1.7083770995140535e+00 -4.7029524340952289e+00 4.6493765572410553e+00 0 0 0
2098 700 1 -8.4760000000000002e-01 1.6025490043298536e+00 -5.6971277641670452e+00 4.6290229397178644e+00 0 0 0
2099 700 2 4.2380000000000001e-01 2.3930777039048117e+00 -6.1072186830619160e+00 4.1741715206937098e+00 0 0 0
1803 601 2 4.2380000000000001e-01 2.5596107331509672e+00 -2.6309876666491134e+00 3.3686572304747764e+00 0 0 0
2738 913 2 4.2380000000000001e-01 3.5397656829607698e+00 -3.6973377449015006e+00 1.3505774741431069e+00 0 0 0
1233 411 2 4.2380000000000001e-01 3.0054661282421753e+00 -6.8141265928326868e+00 1.3609903577900959e+00 0 0 0
2986 996 1 -8.4760000000000002e-01 3.9419484275532231e+00 -6.6969274632375306e+00 3.1058421988635079e+00 0 0 0
3006 1002 2 4.2380000000000001e-01 7.7823961807541799e+00 -9.0835885791018587e+00 4.6744862556497608e+00 0 0 0
3004 1002 1 -8.4760000000000002e-01 7.2573440889710294e+00 -9.1821298658590464e+00 3.8291372009875020e+00 0 0 0
3005 1002 2 4.2380000000000001e-01 7.5125341252911966e+00 -1.0036215928813116e+01 3.3759098381434982e+00 0 0 0
2739 913 2 4.2380000000000001e-01 4.7366889383558268e+00 -4.4007200988343849e+00 4.9078357394007999e-01 0 0 0
2737 913 1 -8.4760000000000002e-01 4.3747938030100499e+00 -4.2443492661655924e+00 1.4097926270290744e+00 0 0 0
2987 996 2 4.2380000000000001e-01 4.4538983135298018e+00 -6.0813362038683820e+00 2.5067139023886433e+00 0 0 0
2721 907 2 4.2380000000000001e-01 5.5351957757866437e+00 -3.4562911361197846e+00 2.7221857715525695e+00 0 0 0
2988 996 2 4.2380000000000001e-01 4.4088432683965690e+00 -6.7688337412056461e+00 3.9872258481233738e+00 0 0 0
2477 826 2 4.2380000000000001e-01 9.3951565308366014e+00 -3.6626478981041664e+00 2.0965129161975407e+00 0 0 0
2977 993 1 -8.4760000000000002e-01 5.7618264541134607e+00 -6.8387095704476808e+00 5.1091928260560353e+00 0 0 0
2963 988 2 4.2380000000000001e-01 8.0654656976627823e+00 -7.7486333827710157e+00 1.5779870963592728e+00 0 0 0
2910 970 2 4.2380000000000001e-01 6.8833553064326818e+00 -7.4473235780492750e+00 3.2066344601075483e+00 0 0 0
2908 970 1 -8.4760000000000002e-01 6.9656380063460857e+00 -6.6879078346746237e+00 2.5612782157667264e+00 0 0 0
2909 970 2 4.2380000000000001e-01 6.6327950027266560e+00 -5.8482411412085584e+00 2.9904348058656796e+00 0 0 0
2719 907 1 -8.4760000000000002e-01 6.2764825446781973e+00 -3.6681928253497227e+00 3.3590505208265573e+00 0 0 0