LAMMPS data file via write_data, version 17 Nov 2016, timestep = 500000

4416 atoms
4 atom types
2944 bonds
2 bond types
1472 angles
2 angle types

 
-6.0000000000000000e+01 6.0000000000000000e+01 xlo xhi
-2.0000000000000000e+01 2.0000000000000000e+01 ylo yhi
-0.75000000000000e+01 3.0000000000000000e+01 zlo zhi

Bond Coeffs

1 1000 1.0
2 1000 1.149

Angle Coeffs

1 1000 109.47
2 147.70554 180.0

Masses

1 15.9994
2 1.008
3 12.0107
4 15.9994

Atoms

3785 1262 4 -3.2560000000000000e-01 5.9323200301699615e+01 -1.5730699687849096e+01 1.7411822962537189e+00 -1 1 0
3784 1262 3 6.5120000000000000e-01 5.8791300584123320e+01 -1.6707356960461272e+01 2.0300148814929857e+00 -1 1 0
3674 1225 4 -3.2560000000000000e-01 -5.4404198679669342e+01 -1.7287547803666314e+01 4.4656664949844922e+00 0 1 0
3673 1225 3 6.5120000000000000e-01 -5.4425064228010790e+01 -1.6188977340621452e+01 4.1296477951807331e+00 0 1 0
4311 1437 4 -3.2560000000000000e-01 -4.9202458064115596e+01 -1.6545817883053427e+01 4.8121288131467086e+00 0 0 0
4309 1437 3 6.5120000000000000e-01 -4.8306364877937291e+01 -1.6870063498930779e+01 4.1701920699475519e+00 0 0 0
3951 1317 4 -3.2560000000000000e-01 -4.2884093191556531e+01 -1.7697362434378466e+01 3.4339687775706436e+00 0 0 0
4310 1437 4 -3.2560000000000000e-01 -4.7410271691758993e+01 -1.7194309114808132e+01 3.5282553267483947e+00 0 0 0
3949 1317 3 6.5120000000000000e-01 -4.2822597196217600e+01 -1.7135663461280359e+01 2.4335121287458130e+00 0 0 0
14 5 2 4.2380000000000001e-01 -1.3120213451876479e+01 -1.8018604992752465e+01 2.8477599353505756e+00 0 0 0
1131 377 2 4.2380000000000001e-01 -1.6120000771144031e+01 1.9909951161448507e+01 4.8831170016260055e+00 0 0 0
1129 377 1 -8.4760000000000002e-01 -1.5605234579515093e+01 1.9096802445248759e+01 4.6115063807023313e+00 0 0 0
13 5 1 -8.4760000000000002e-01 -1.2597229640984438e+01 -1.7733419105598390e+01 3.6509765582568630e+00 0 0 0
268 90 1 -8.4760000000000002e-01 -1.3413782830280022e+01 -1.4909483555625723e+01 4.2459647209542117e+00 0 1 0
269 90 2 4.2380000000000001e-01 -1.3351691724326706e+01 -1.4714239285390057e+01 3.2671775277903268e+00 0 1 0
270 90 2 4.2380000000000001e-01 -1.2754012403373789e+01 -1.4344234927931483e+01 4.7411054774767862e+00 0 1 0
15 5 2 4.2380000000000001e-01 -1.2994619682150448e+01 -1.6896629018556212e+01 4.0275721442772214e+00 0 0 0
4394 1465 4 -3.2560000000000000e-01 -1.8222336764439966e+01 -1.7970608236075709e+01 1.6500151592006214e+00 0 1 0
1130 377 2 4.2380000000000001e-01 -1.6241331478738118e+01 1.8377482135262984e+01 4.3322949439007257e+00 0 0 0
317 106 2 4.2380000000000001e-01 -1.5497099831751378e+01 -1.4776871839102524e+01 5.8857237707702383e+00 0 0 0
1780 594 1 -8.4760000000000002e-01 -7.7971532566682464e+00 -1.7715295093778778e+01 3.5006879579252992e+00 0 0 0
1782 594 2 4.2380000000000001e-01 -8.0263556945453445e+00 -1.8287368840721562e+01 2.7131822331016413e+00 0 0 0
891 297 2 4.2380000000000001e-01 -8.7150280356434209e+00 -1.6170969813587867e+01 4.6195878487377815e+00 0 0 0
1134 378 2 4.2380000000000001e-01 -9.3593048385420357e+00 -1.8622538953652054e+01 4.0773444306305437e+00 0 1 0
889 297 1 -8.4760000000000002e-01 -9.3933926455337104e+00 -1.5554095758103898e+01 5.0186558276826760e+00 0 0 0
1442 481 2 4.2380000000000001e-01 -8.2760630342389341e+00 -1.9680034096280817e+01 7.6390387902156165e-01 0 0 0
1781 594 2 4.2380000000000001e-01 -6.8694450241648006e+00 -1.7927311608875872e+01 3.8079442559427954e+00 0 0 0
1180 394 1 -8.4760000000000002e-01 -4.8921421214475505e+00 -1.6141446319808331e+01 2.6793415528598961e+00 0 0 0
1182 394 2 4.2380000000000001e-01 -5.8463496018122560e+00 -1.6430264686176596e+01 2.7570553339055537e+00 0 0 0
1518 506 2 4.2380000000000001e-01 -4.2474771665072559e+00 -1.8113986573687502e+01 5.0092682954917835e+00 0 0 0
1516 506 1 -8.4760000000000002e-01 -5.1867972642212443e+00 -1.8450928898946643e+01 5.0737099899104523e+00 0 0 0
1181 394 2 4.2380000000000001e-01 -4.5511423001751954e+00 -1.5871695528073442e+01 3.5798711927111464e+00 0 0 0
1729 577 1 -8.4760000000000002e-01 -4.0300522784766146e+00 -1.9216405948044088e+01 1.2768238733297952e+00 0 0 0
1730 577 2 4.2380000000000001e-01 -4.3630287500228278e+00 -1.8370946951294925e+01 8.5930051564482302e-01 0 0 0
1731 577 2 4.2380000000000001e-01 -3.2343349174870384e+00 -1.9015159028317385e+01 1.8480514591660318e+00 0 0 0
625 209 1 -8.4760000000000002e-01 -5.1794268376362451e+00 -1.3913485650175129e+01 5.2039863978183307e+00 0 0 0
627 209 2 4.2380000000000001e-01 -5.9386086651849848e+00 -1.4329321618292054e+01 5.7046767177167812e+00 0 0 0
1227 409 2 4.2380000000000001e-01 -4.7246389677799030e+00 -1.4892649147599780e+01 1.3194468011561740e+00 0 0 0
1446 482 2 4.2380000000000001e-01 -1.9849333720636575e+00 -1.8472852506817990e+01 5.8745332659145273e+00 0 0 0
1444 482 1 -8.4760000000000002e-01 -2.4674324056858015e+00 -1.7628948316579500e+01 5.6400384976325633e+00 0 0 0
1445 482 2 4.2380000000000001e-01 -1.8024550331571185e+00 -1.6909537739427083e+01 5.4394057099181028e+00 0 0 0
1226 409 2 4.2380000000000001e-01 -3.9530418964378446e+00 -1.3457767936032019e+01 1.2081859514102087e+00 0 0 0
1203 401 2 4.2380000000000001e-01 -1.9043834447722672e+00 -1.5452396130568786e+01 2.6904636554205004e+00 0 0 0
1202 401 2 4.2380000000000001e-01 -1.0551749656751084e+00 -1.5337877919867463e+01 1.3003852639089810e+00 0 0 0
1201 401 1 -8.4760000000000002e-01 -1.9676209276696894e+00 -1.5286576069849072e+01 1.7063538422798608e+00 0 0 0
2045 682 2 4.2380000000000001e-01 -2.1370286456034782e+00 -1.7408152011935115e+01 2.7448988752925354e+00 0 0 0
1156 386 1 -8.4760000000000002e-01 3.0999236335244378e+00 -1.7069381224121607e+01 1.3324738689292892e+00 0 0 0
1157 386 2 4.2380000000000001e-01 3.2721595962576533e+00 -1.6543776246151385e+01 4.9936272371858847e-01 0 0 0
1778 593 2 4.2380000000000001e-01 1.4826212723512293e+00 -1.7755344547774826e+01 1.4225655485565678e+00 0 0 0
1158 386 2 4.2380000000000001e-01 3.3828088934195399e+00 -1.6534401178874113e+01 2.1285515517097222e+00 0 0 0
2354 785 2 4.2380000000000001e-01 -8.4389246636661941e-01 -1.5141061710053560e+01 4.9558657071007834e+00 0 0 0
2386 796 1 -8.4760000000000002e-01 7.6542707233194329e-01 -1.9214089499890253e+01 4.9108437625939407e+00 0 0 0
1513 505 1 -8.4760000000000002e-01 6.5505391611910191e-01 -1.4803402936276782e+01 1.6327399301541565e+00 0 0 0
1225 409 1 -8.4760000000000002e-01 -4.8288623382862088e+00 -1.3925303059630082e+01 1.0883967121494187e+00 0 0 0
1515 505 2 4.2380000000000001e-01 5.3592619446689760e-01 -1.3811837354444334e+01 1.5816381556327528e+00 0 0 0
1514 505 2 4.2380000000000001e-01 1.4866611724173644e+00 -1.5013135923920276e+01 2.1469786346156265e+00 0 0 0
1495 499 1 -8.4760000000000002e-01 3.2768984690812224e+00 -1.4773727339418055e+01 3.1404929367646557e+00 0 0 0
2044 682 1 -8.4760000000000002e-01 -1.7782006055312676e+00 -1.8311153073572672e+01 2.5086119303730552e+00 0 0 0
2388 796 2 4.2380000000000001e-01 9.7031675258647032e-01 -1.8534316699541311e+01 5.6150650355124467e+00 0 0 0
2387 796 2 4.2380000000000001e-01 8.0313187489676829e-01 -1.8782211271475081e+01 4.0097002980531817e+00 0 0 0
2353 785 1 -8.4760000000000002e-01 -8.8968738181312768e-01 -1.5691141921340122e+01 4.1220104517535638e+00 0 0 0
3169 1057 1 -8.4760000000000002e-01 6.4941209408207268e+00 1.9362769934488636e+01 3.2553393231799230e+00 0 -1 0
2019 673 2 4.2380000000000001e-01 8.3562211679836906e+00 1.9986737488033700e+01 2.5465401767671083e+00 0 -1 0
1659 553 2 4.2380000000000001e-01 4.1064343240453054e+00 -1.8620692598447910e+01 1.8023333042645084e+00 0 1 0
3171 1057 2 4.2380000000000001e-01 5.6820490700526625e+00 1.9575531998704474e+01 2.7119803471448631e+00 0 -1 0
3170 1057 2 4.2380000000000001e-01 6.3267633864397457e+00 1.9600765345585156e+01 4.2120783854579376e+00 0 -1 0
1496 499 2 4.2380000000000001e-01 3.8660560918461906e+00 -1.5432683891051042e+01 3.6081141067280083e+00 0 0 0
1657 553 1 -8.4760000000000002e-01 4.2098446594636441e+00 -1.9557332272642423e+01 2.1370235069198280e+00 0 1 0
2018 673 2 4.2380000000000001e-01 9.0594729056840020e+00 -1.9023105576972181e+01 1.4549296081097005e+00 0 0 0
1658 553 2 4.2380000000000001e-01 3.4199910535352216e+00 1.9898517601989031e+01 1.8541243689514313e+00 0 0 0
1803 601 2 4.2380000000000001e-01 6.8670251283785282e+00 -1.6773506974659355e+01 6.3562154794916479e+00 0 0 0
2017 673 1 -8.4760000000000002e-01 9.1788301463032163e+00 -1.9486250653230307e+01 2.3331382891471986e+00 0 0 0
2619 873 2 4.2380000000000001e-01 1.0353957548902370e+01 1.9667849651463968e+01 3.3037361426029817e+00 0 -1 0
3567 1189 4 -3.2560000000000000e-01 5.0068337050852946e+01 -1.7298226731817014e+01 2.2445407994478832e+00 -1 1 0
3565 1189 3 6.5120000000000000e-01 5.0847333861457230e+01 -1.8141060886164244e+01 2.2992724843674659e+00 -1 1 0
3566 1189 4 -3.2560000000000000e-01 5.1626330672061520e+01 -1.8983895040511474e+01 2.3540041692870486e+00 -1 1 0
3807 1269 4 -3.2560000000000000e-01 5.3786198706033240e+01 1.9019302664966613e+01 2.9705866506858638e+00 -1 0 0
3805 1269 3 6.5120000000000000e-01 5.4176917960003550e+01 1.9271625398667407e+01 1.9199331861055398e+00 -1 0 0
3494 1165 4 -3.2560000000000000e-01 5.1089747484051529e+01 -1.5268087058647628e+01 7.5842377434857799e-01 -1 0 0
3806 1269 4 -3.2560000000000000e-01 5.4567637213973867e+01 1.9523948132368201e+01 8.6927972152521571e-01 -1 0 0
3840 1280 4 -3.2560000000000000e-01 5.9075451739029958e+01 -1.2939198870080922e+01 1.1030375193657576e+00 -1 0 0
3786 1262 4 -3.2560000000000000e-01 5.8259400866547026e+01 -1.7684014233073452e+01 2.3188474667322527e+00 -1 1 0
4167 1389 4 -3.2560000000000000e-01 5.6201659356454677e+01 -1.5970693862466204e+01 9.5728105762181515e-01 -1 1 0
4165 1389 3 6.5120000000000000e-01 5.5232214983457148e+01 -1.5353984386223681e+01 9.5035072024906930e-01 -1 1 0
4166 1389 4 -3.2560000000000000e-01 5.4262770610459619e+01 -1.4737274909981158e+01 9.4342038287632357e-01 -1 1 0
3901 1301 3 6.5120000000000000e-01 5.5301699434281780e+01 -1.5759203878701181e+01 4.4091073423582321e+00 -1 1 0
3902 1301 4 -3.2560000000000000e-01 5.6118649843775842e+01 -1.6489834625227772e+01 4.0641845384477389e+00 -1 1 0
3675 1225 4 -3.2560000000000000e-01 -5.4445929776352237e+01 -1.5090406877576591e+01 3.7936290953769749e+00 0 1 0
3839 1280 4 -3.2560000000000000e-01 -5.8841473890773621e+01 -1.2026979590690402e+01 7.7218837770293236e-01 0 0 0
3838 1280 3 6.5120000000000000e-01 -5.9883011075871835e+01 -1.2483089230385662e+01 9.3761294853434507e-01 0 0 0
3817 1273 3 6.5120000000000000e-01 -5.9916158695172605e+01 -1.0641909366299327e+01 4.2889133496298006e+00 0 0 0
3819 1273 4 -3.2560000000000000e-01 5.9538371414192504e+01 -1.0834612863241734e+01 3.2961752367939292e+00 -1 0 0
3974 1325 4 -3.2560000000000000e-01 -5.1635148403744800e+01 -9.7063844627045217e+00 4.3893802656235108e+00 0 0 0
4322 1441 4 -3.2560000000000000e-01 -5.0345709020717742e+01 -9.8012892002548107e+00 1.3183690851029555e+00 0 0 0
3950 1317 4 -3.2560000000000000e-01 -4.2761101200878677e+01 -1.6573964488182256e+01 1.4330554799209827e+00 0 0 0
4323 1441 4 -3.2560000000000000e-01 -4.8343281148139823e+01 -1.0928713534972808e+01 1.3193613596276339e+00 0 0 0
4321 1441 3 6.5120000000000000e-01 -4.9344495084428779e+01 -1.0365001367613809e+01 1.3188652223652946e+00 0 0 0
102 34 2 4.2380000000000001e-01 -1.5539577565686930e+01 -8.1232202373431637e+00 3.6452332960443679e+00 0 0 0
872 291 2 4.2380000000000001e-01 -1.4393207063205496e+01 -9.4337905869043741e+00 2.1603348439103169e+00 0 0 0
871 291 1 -8.4760000000000002e-01 -1.4945469009792738e+01 -9.4512984894532064e+00 2.9938216258691019e+00 0 0 0
873 291 2 4.2380000000000001e-01 -1.4787785216838763e+01 -1.0310711252131307e+01 3.4801475668650985e+00 0 0 0
845 282 2 4.2380000000000001e-01 -1.3255616390544812e+01 -1.2143484955760139e+01 3.5247925703367011e+00 0 1 0
32 11 2 4.2380000000000001e-01 -1.7698542586796368e+01 -1.0108011417498453e+01 4.5314371971217691e+00 0 0 0
121 41 1 -8.4760000000000002e-01 -1.2843740343784683e+01 -1.0032980837305535e+01 1.2520987396616847e+00 0 0 0
844 282 1 -8.4760000000000002e-01 -1.2505502421069124e+01 -1.2295720594949319e+01 2.8812451028115089e+00 0 1 0
846 282 2 4.2380000000000001e-01 -1.1751006027918983e+01 -1.2753876489030278e+01 3.3511342020065262e+00 0 1 0
122 41 2 4.2380000000000001e-01 -1.1953209155138959e+01 -9.8087031668969775e+00 8.5630368081765829e-01 0 0 0
123 41 2 4.2380000000000001e-01 -1.2780713773796229e+01 -1.0901373478607084e+01 1.7439594725005723e+00 0 0 0
914 305 2 4.2380000000000001e-01 -9.6401606900672192e+00 -8.6541679755974261e+00 3.1100787020742704e-02 0 0 0
915 305 2 4.2380000000000001e-01 -1.0580275702262817e+01 -7.9637025137246349e+00 1.1739168727953802e+00 0 0 0
913 305 1 -8.4760000000000002e-01 -1.0505849063457571e+01 -8.7225889383771786e+00 5.2698606813832127e-01 0 0 0
1251 417 2 4.2380000000000001e-01 -1.0414211124982902e+01 -7.4242430104998025e+00 5.6198078748462788e+00 0 0 0
314 105 2 4.2380000000000001e-01 -9.2496764989580011e+00 -8.0725497721351811e+00 2.4604442517441245e+00 0 0 0
315 105 2 4.2380000000000001e-01 -8.4844972547046904e+00 -9.3769124924271861e+00 3.0766633801200429e+00 0 0 0
313 105 1 -8.4760000000000002e-01 -8.3928410786278764e+00 -8.5880693144050699e+00 2.4689685702237041e+00 0 0 0
1791 597 2 4.2380000000000001e-01 -8.3538737751459209e+00 -1.3708096996242473e+01 5.1004671458805140e+00 0 0 0
1789 597 1 -8.4760000000000002e-01 -8.6150729038585396e+00 -1.2793749720611318e+01 5.4098290774520157e+00 0 0 0
626 209 2 4.2380000000000001e-01 -5.5223951944938596e+00 -1.3503277994926213e+01 4.3589406086627527e+00 0 0 0
1250 417 2 4.2380000000000001e-01 -8.9715809795531491e+00 -7.6398985979200482e+00 6.3539305073892081e+00 0 0 0
362 121 2 4.2380000000000001e-01 -5.8395012611418986e+00 -1.3274816551001258e+01 2.2479775073885349e+00 0 0 0
361 121 1 -8.4760000000000002e-01 -6.2747899642030802e+00 -1.2669208759900879e+01 2.9141328558965500e+00 0 0 0
1275 425 2 4.2380000000000001e-01 -3.4718441866535068e+00 -9.5973895677969878e+00 2.4811733343402538e+00 0 0 0
916 306 1 -8.4760000000000002e-01 -3.9000265034790145e+00 -1.0059999818547839e+01 4.6309299390623284e+00 0 0 0
918 306 2 4.2380000000000001e-01 -4.3710950809018714e+00 -1.0038327865960598e+01 3.7491181008928356e+00 0 0 0
363 121 2 4.2380000000000001e-01 -6.7948913370006876e+00 -1.1963479433445455e+01 2.4330447264495461e+00 0 0 0
917 306 2 4.2380000000000001e-01 -3.3614526620810037e+00 -1.0899695520800694e+01 4.7005671775190185e+00 0 0 0
1491 497 2 4.2380000000000001e-01 -3.5588476703991838e+00 -1.2988540629400514e+01 4.6440526032920806e+00 0 0 0
2185 729 1 -8.4760000000000002e-01 -1.7440390016040039e+00 -1.1137042963465770e+01 2.3576957126732396e+00 0 0 0
1489 497 1 -8.4760000000000002e-01 -2.7492698698060338e+00 -1.2404169919522964e+01 4.5887167711038588e+00 0 0 0
1490 497 2 4.2380000000000001e-01 -1.9687456811937896e+00 -1.2876326029668810e+01 4.9984125102117263e+00 0 0 0
2377 793 1 -8.4760000000000002e-01 9.6179715241407471e-01 -1.1594858807544576e+01 2.2500024261468350e+00 0 0 0
2378 793 2 4.2380000000000001e-01 1.7957305925639577e+00 -1.1928749486022911e+01 2.6894020531665435e+00 0 0 0
2379 793 2 4.2380000000000001e-01 1.0405819872044335e+00 -1.0610959625626988e+01 2.0895640949134311e+00 0 0 0
1850 617 2 4.2380000000000001e-01 5.8262165903642860e-02 -8.1781005610212478e+00 1.4722971206977129e+00 0 0 0
1849 617 1 -8.4760000000000002e-01 7.4660334591381428e-01 -8.7768432315447757e+00 1.8818012530291941e+00 0 0 0
2187 729 2 4.2380000000000001e-01 -2.3813001985609401e+00 -1.1610079532290271e+01 2.9660867710458589e+00 0 0 0
2186 729 2 4.2380000000000001e-01 -8.7225144349800798e-01 -1.1626684819093976e+01 2.3422909488466552e+00 0 0 0
1851 617 2 4.2380000000000001e-01 6.5905526857380747e-01 -8.7530541728923055e+00 2.8776800224296153e+00 0 0 0
1543 515 1 -8.4760000000000002e-01 3.3909831414212466e+00 -1.1826570285961832e+01 3.4059192263043547e+00 0 0 0
2690 897 2 4.2380000000000001e-01 6.0783628717746456e+00 -9.9373126696313552e+00 1.5666967746228873e+00 0 0 0
2689 897 1 -8.4760000000000002e-01 5.3093941590931326e+00 -1.0342072865323233e+01 2.0615263441722500e+00 0 0 0
2691 897 2 4.2380000000000001e-01 4.5770534488402639e+00 -9.6668230548642580e+00 2.1493892264459573e+00 0 0 0
2977 993 1 -8.4760000000000002e-01 7.1003764630112958e+00 -8.9359152782285101e+00 8.4707648444344608e-01 0 0 0
2978 993 2 4.2380000000000001e-01 8.0658667400102022e+00 -8.9771299425263091e+00 1.1042337835181455e+00 0 0 0
2979 993 2 4.2380000000000001e-01 6.8768551964134836e+00 -8.0114087323902385e+00 5.3831930059066813e-01 0 0 0
2340 780 2 4.2380000000000001e-01 9.2037585514486562e+00 -8.3700661765399431e+00 4.8500267951277074e+00 0 0 0
1544 515 2 4.2380000000000001e-01 4.2553122540065225e+00 -1.1682923706423781e+01 2.9239432462757140e+00 0 0 0
2073 691 2 4.2380000000000001e-01 6.6298651294659052e+00 -1.1259371784492490e+01 3.0387350360687218e+00 0 0 0
1545 515 2 4.2380000000000001e-01 3.3519668387936994e+00 -1.1227860574851592e+01 4.2059376751238622e+00 0 0 0
2072 691 2 4.2380000000000001e-01 7.8772919009861653e+00 -1.0807079987155882e+01 3.9905469796040829e+00 0 0 0
3194 1065 2 4.2380000000000001e-01 1.0126411821662510e+01 -8.2028835303397862e+00 2.0789473622865127e+00 0 0 0
3193 1065 1 -8.4760000000000002e-01 9.3610066713585613e+00 -8.8338109381029533e+00 2.2057762313244482e+00 0 0 0
3195 1065 2 4.2380000000000001e-01 9.3139799086100687e+00 -9.1122089573500649e+00 3.1650730688907380e+00 0 0 0
3606 1202 4 -3.2560000000000000e-01 4.5590113101579178e+01 -1.2222822918548683e+01 3.2028936570572677e+00 -1 0 0
3604 1202 3 6.5120000000000000e-01 4.6187065241487666e+01 -1.2209189757313705e+01 2.2212301303978421e+00 -1 0 0
3605 1202 4 -3.2560000000000000e-01 4.6784017381396154e+01 -1.2195556596078728e+01 1.2395666037384174e+00 -1 0 0
3495 1165 4 -3.2560000000000000e-01 5.0358569963106504e+01 -1.3096897759490815e+01 5.7920195622470438e-01 -1 0 0
3493 1165 3 6.5120000000000000e-01 5.0724158723579016e+01 -1.4182492409069221e+01 6.6881286528664119e-01 -1 0 0
3579 1193 4 -3.2560000000000000e-01 5.2477111672737912e+01 -1.2298410194120235e+01 2.3037056626848109e+00 -1 0 0
3577 1193 3 6.5120000000000000e-01 5.3145617323416580e+01 -1.1671510696187909e+01 1.6106701552951170e+00 -1 0 0
3578 1193 4 -3.2560000000000000e-01 5.3814122974095248e+01 -1.1044611198255582e+01 9.1763464790542304e-01 -1 0 0
4046 1349 4 -3.2560000000000000e-01 5.6999109183442037e+01 -1.2776349935274734e+01 6.1460111696293263e+00 -1 1 0
4047 1349 4 -3.2560000000000000e-01 5.5489850147217297e+01 -1.1122512416684787e+01 5.6285533223816255e+00 -1 1 0
4045 1349 3 6.5120000000000000e-01 5.6244479665329671e+01 -1.1949431175979759e+01 5.8872822460054763e+00 -1 1 0
4334 1445 4 -3.2560000000000000e-01 5.8177927010849068e+01 -5.5820055482876203e+00 5.1488854357522182e+00 -1 0 0
4333 1445 3 6.5120000000000000e-01 5.8809489392837058e+01 -6.5317750864369533e+00 5.0100769991885077e+00 -1 0 0
4335 1445 4 -3.2560000000000000e-01 5.9441051774825048e+01 -7.4815446245862853e+00 4.8712685626247980e+00 -1 0 0
3721 1241 3 6.5120000000000000e-01 -5.4147560172531975e+01 -5.8120557021836108e+00 1.2663243815872993e+00 0 0 0
3723 1241 4 -3.2560000000000000e-01 -5.5238503272560180e+01 -5.8351957409328907e+00 9.0645122183857518e-01 0 0 0
3973 1325 3 6.5120000000000000e-01 -5.1843371928326441e+01 -8.6151143823929583e+00 4.0961677562935108e+00 0 0 0
3975 1325 4 -3.2560000000000000e-01 -5.2051595452908074e+01 -7.5238443020813950e+00 3.8029552469635117e+00 0 0 0
3869 1290 4 -3.2560000000000000e-01 -4.9470789366757579e+01 -6.0517185710701238e+00 3.8959176847958368e+00 0 0 0
4203 1401 4 -3.2560000000000000e-01 -5.0076008225892494e+01 -3.0458771565982823e+00 4.0667452085792188e+00 0 0 0
4201 1401 3 6.5120000000000000e-01 -5.0969513884891420e+01 -2.6261681482411667e+00 3.4787885897366486e+00 0 0 0
3722 1241 4 -3.2560000000000000e-01 -5.3056617072503769e+01 -5.7889156634343308e+00 1.6261975413360235e+00 0 0 0
4206 1402 4 -3.2560000000000000e-01 -4.6483751629082008e+01 -7.1491377688821194e+00 2.8234952481887214e+00 0 0 0
4204 1402 3 6.5120000000000000e-01 -4.6765126796708095e+01 -6.2111727810557831e+00 2.2224539046396035e+00 0 0 0
4205 1402 4 -3.2560000000000000e-01 -4.7046501964334190e+01 -5.2732077932294477e+00 1.6214125610904859e+00 0 0 0
4373 1458 4 -3.2560000000000000e-01 -4.1724412558945353e+01 -3.3241607977814112e+00 2.4794565458544717e+00 0 0 0
4372 1458 3 6.5120000000000000e-01 -4.0715307365094425e+01 -3.3752754533189071e+00 1.9323779411436341e+00 0 0 0
4374 1458 4 -3.2560000000000000e-01 -3.9706202171243490e+01 -3.4263901088564035e+00 1.3852993364327963e+00 0 0 0
100 34 1 -8.4760000000000002e-01 -1.5894065259927469e+01 -7.2508971873156778e+00 3.9819766397391896e+00 0 0 0
60 20 2 4.2380000000000001e-01 -1.7089515745155914e+01 -5.1536243965186284e+00 1.6063552771932619e+00 0 0 0
101 34 2 4.2380000000000001e-01 -1.6327847443003083e+01 -6.7547433245342230e+00 3.2298700235648634e+00 0 0 0
988 330 1 -8.4760000000000002e-01 -1.5710545546010387e+01 -5.2904718326022309e+00 5.7578526181781173e+00 0 0 0
989 330 2 4.2380000000000001e-01 -1.4873971722541853e+01 -5.4546120548478854e+00 6.2805401207342673e+00 0 0 0
990 330 2 4.2380000000000001e-01 -1.5799402732238889e+01 -5.9853032263342794e+00 5.0441868397916725e+00 0 0 0
678 226 2 4.2380000000000001e-01 -1.6819488580185570e+01 -4.0313970634068710e+00 4.9753350048544966e+00 0 0 0
633 211 2 4.2380000000000001e-01 -1.9915376066069935e+01 -7.0879667929246084e+00 9.2723146406509294e+00 0 0 0
677 226 2 4.2380000000000001e-01 -1.6494010941971791e+01 -2.6639000229123995e+00 4.1442867151855740e+00 0 0 0
676 226 1 -8.4760000000000002e-01 -1.7196208401595570e+01 -3.1634937428540182e+00 4.6515586764576362e+00 0 0 0
59 20 2 4.2380000000000001e-01 -1.7340094846923481e+01 -6.6576046498369585e+00 1.0217064583405351e+00 0 0 0
58 20 1 -8.4760000000000002e-01 -1.7351624542640490e+01 -6.0888839152334109e+00 1.8441563304596051e+00 0 0 0
1471 491 1 -8.4760000000000002e-01 -1.0667433634697190e+01 -6.6953918488970077e+00 2.3198494077086975e+00 0 0 0
1473 491 2 4.2380000000000001e-01 -1.1533591508962227e+01 -6.6226677896011354e+00 2.8142673929683415e+00 0 0 0
1472 491 2 4.2380000000000001e-01 -1.0095177679307564e+01 -5.9031509565709985e+00 2.5316924865373331e+00 0 0 0
1249 417 1 -8.4760000000000002e-01 -9.6948966434499884e+00 -6.9791957082321359e+00 6.1532164273661163e+00 0 0 0
1057 353 1 -8.4760000000000002e-01 -1.2617642729972300e+01 -3.2197281901952239e+00 2.2344673291806489e+00 0 0 0
1058 353 2 4.2380000000000001e-01 -1.1896579390544609e+01 -3.9097064853464243e+00 2.2976940067276228e+00 0 0 0
51 17 2 4.2380000000000001e-01 -1.3643644369379196e+01 -6.8655802682226597e+00 3.3782349013241397e+00 0 0 0
49 17 1 -8.4760000000000002e-01 -1.2811533554763464e+01 -6.5795933964441504e+00 3.8533880318724747e+00 0 0 0
50 17 2 4.2380000000000001e-01 -1.3056581365639961e+01 -6.1142032594513269e+00 4.7038958747372179e+00 0 0 0
1322 441 2 4.2380000000000001e-01 -9.4547966650629167e+00 -5.6361150110296760e+00 4.6822579728184870e+00 0 0 0
1323 441 2 4.2380000000000001e-01 -8.8377726494110291e+00 -4.2865468758446754e+00 4.0006625494901753e+00 0 0 0
1321 441 1 -8.4760000000000002e-01 -9.0879002456666491e+00 -5.2413264028440221e+00 3.8399225454019303e+00 0 0 0
943 315 1 -8.4760000000000002e-01 -9.3421719392107434e+00 -2.4198607054979600e+00 4.8886644300424988e+00 0 0 0
944 315 2 4.2380000000000001e-01 -8.9696353165874108e+00 -2.6884945181658804e+00 5.7769506111214888e+00 0 0 0
1311 437 2 4.2380000000000001e-01 -1.2386596144765026e+01 -2.5306572022697540e+00 3.9147325569508533e+00 0 0 0
1310 437 2 4.2380000000000001e-01 -1.0976851180213824e+01 -2.5971889081930115e+00 4.7361846656495121e+00 0 0 0
1567 523 1 -8.4760000000000002e-01 -1.1385265966817807e+01 -9.1306125564742242e+00 5.0986029728027518e+00 0 0 0
1274 425 2 4.2380000000000001e-01 -4.0553988317613747e+00 -1.0131722509628895e+01 1.0526855353212037e+00 0 0 0
1205 402 2 4.2380000000000001e-01 -5.3339271821653416e+00 -6.4228949745257280e+00 3.1754962433263940e+00 0 0 0
1206 402 2 4.2380000000000001e-01 -5.4630450971966482e+00 -4.9060362623822593e+00 3.7663055251698876e+00 0 0 0
1273 425 1 -8.4760000000000002e-01 -4.2263345705837025e+00 -9.5248429178208109e+00 1.8288801850322915e+00 0 0 0
1204 402 1 -8.4760000000000002e-01 -5.3615246820825915e+00 -5.8708348129518981e+00 4.0088436834744963e+00 0 0 0
1211 404 2 4.2380000000000001e-01 -2.2303133698596644e+00 -5.2243922775919245e+00 4.7034901105827522e+00 0 0 0
1565 522 2 4.2380000000000001e-01 -6.9223380506925158e+00 -7.9578008634711850e+00 1.5821132947623895e+00 0 0 0
1564 522 1 -8.4760000000000002e-01 -6.1881797592157621e+00 -7.5893647710126615e+00 1.0117919390077337e+00 0 0 0
1566 522 2 4.2380000000000001e-01 -5.4173299576355944e+00 -8.2263752628517501e+00 1.0081415704322294e+00 0 0 0
1285 429 1 -8.4760000000000002e-01 -7.2170538473520924e+00 -5.0794300780898398e+00 1.6927539767272486e+00 0 0 0
1286 429 2 4.2380000000000001e-01 -6.7368898743466268e+00 -5.9082208635722768e+00 1.4054416154773151e+00 0 0 0
1829 610 2 4.2380000000000001e-01 -2.2899253076532191e+00 -9.1043902765214835e+00 5.3123396202171680e+00 0 0 0
1287 429 2 4.2380000000000001e-01 -8.0111730907391863e+00 -5.3293984332195272e+00 2.2467295096852191e+00 0 0 0
972 324 2 4.2380000000000001e-01 -6.0243312365570940e+00 -3.6150296093923338e+00 2.3674570199584881e+00 0 0 0
1828 610 1 -8.4760000000000002e-01 -2.0265055692913823e+00 -8.3096141718252827e+00 5.8590945789009616e+00 0 0 0
970 324 1 -8.4760000000000002e-01 -5.4058193849404708e+00 -3.3489981456186961e+00 3.1068275577081557e+00 0 0 0
971 324 2 4.2380000000000001e-01 -5.1035281348070924e+00 -2.4063099458035953e+00 2.9655513812941421e+00 0 0 0
1830 610 2 4.2380000000000001e-01 -2.2522778107724961e+00 -7.4725609964796060e+00 5.3607232463382690e+00 0 0 0
1210 404 1 -8.4760000000000002e-01 -2.7399981404402642e+00 -6.0458487704609896e+00 4.4476959258141058e+00 0 0 0
1212 404 2 4.2380000000000001e-01 -3.7043496729645469e+00 -5.8137267030398139e+00 4.3207857310534692e+00 0 0 0
2123 708 2 4.2380000000000001e-01 -5.4388405161629994e-01 -4.7904304840712166e+00 1.7918576945872302e+00 0 0 0
2642 881 2 4.2380000000000001e-01 2.3643805020607731e+00 -8.2247305143151603e+00 1.9721193625481841e+00 0 0 0
2641 881 1 -8.4760000000000002e-01 3.3314283378768237e+00 -7.9756002476751018e+00 1.9196541980354644e+00 0 0 0
2124 708 2 4.2380000000000001e-01 1.9601190431589222e-01 -4.4260099450643917e+00 3.2012370216476072e+00 0 0 0
2164 722 1 -8.4760000000000002e-01 1.9928148950446503e+00 -2.2418415895086721e+00 2.2936655273950670e+00 0 0 0
2165 722 2 4.2380000000000001e-01 1.4292452705398351e+00 -3.0240701658482312e+00 2.5591984494467184e+00 0 0 0
1561 521 1 -8.4760000000000002e-01 8.8199227665608759e-01 -4.6232218215481176e+00 4.7713347789128306e+00 0 0 0
1563 521 2 4.2380000000000001e-01 1.8454839575001647e+00 -4.5137996064275576e+00 4.5269668835534684e+00 0 0 0
2643 881 2 4.2380000000000001e-01 3.5936297033769495e+00 -7.8571773676705510e+00 9.6195181131958352e-01 0 0 0
2122 708 1 -8.4760000000000002e-01 1.1125605372955202e-01 -4.1791818644796335e+00 2.2358921160173812e+00 0 0 0
2166 722 2 4.2380000000000001e-01 1.4034206744511342e+00 -1.4596285396547590e+00 2.0917874371395859e+00 0 0 0
2433 811 2 4.2380000000000001e-01 -2.4709301453298282e-01 -8.4187477580381493e+00 5.1210835580832059e+00 0 0 0
1230 410 2 4.2380000000000001e-01 -6.4497365106553595e-01 -2.5475237173450673e+00 1.7516259321369867e+00 0 0 0
1539 513 2 4.2380000000000001e-01 -1.8566711307809107e+00 -2.7665993309181847e+00 5.3840434897871141e+00 0 0 0
2432 811 2 4.2380000000000001e-01 1.3364882544582612e+00 -8.2816892187565507e+00 5.4953968357131595e+00 0 0 0
2431 811 1 -8.4760000000000002e-01 6.8205861430022618e-01 -8.6592117214718893e+00 4.8402643254328552e+00 0 0 0
2953 985 1 -8.4760000000000002e-01 6.7491957298580738e+00 -7.3896821430648973e+00 3.4399144186572244e+00 0 0 0
2955 985 2 4.2380000000000001e-01 5.8162688972022574e+00 -7.7192116283822569e+00 3.5850452276443687e+00 0 0 0
2714 905 2 4.2380000000000001e-01 3.0396011683769513e+00 -6.7476676316086071e+00 3.9314833765408741e+00 0 0 0
2715 905 2 4.2380000000000001e-01 3.4373846602287883e+00 -5.4768008024512769e+00 2.9863426967170970e+00 0 0 0
2713 905 1 -8.4760000000000002e-01 3.1392068925320062e+00 -5.7531395022774747e+00 3.8999794135415304e+00 0 0 0
2407 803 1 -8.4760000000000002e-01 6.0528167288168646e+00 -5.8838945880137663e+00 9.1065245972694431e-01 0 0 0
2408 803 2 4.2380000000000001e-01 5.6742707579981788e+00 -4.9590605786462287e+00 8.7343683002510963e-01 0 0 0
2409 803 2 4.2380000000000001e-01 6.5050212194336572e+00 -6.0237544801172964e+00 1.7915357764873407e+00 0 0 0
2676 892 2 4.2380000000000001e-01 5.6115121634006364e+00 -2.6338557313411872e+00 1.4928483283716698e+00 0 0 0
2674 892 1 -8.4760000000000002e-01 4.9801390562822769e+00 -3.3410936717378616e+00 1.1747588163295708e+00 0 0 0
2675 892 2 4.2380000000000001e-01 4.0633805638339497e+00 -2.9524516149446467e+00 1.0825025525020699e+00 0 0 0
2414 805 2 4.2380000000000001e-01 7.5142230555917280e+00 -5.8715633627247774e+00 4.4828023637306993e+00 0 0 0
2413 805 1 -8.4760000000000002e-01 8.2419358097399638e+00 -5.3820809736090736e+00 4.9632616629388355e+00 0 0 0
2415 805 2 4.2380000000000001e-01 9.0906611684914509e+00 -5.4479097584664826e+00 4.4385424247777427e+00 0 0 0
3320 1107 2 4.2380000000000001e-01 7.8308205122763264e+00 -3.6054050801114190e+00 5.7366991157663936e+00 0 0 0
2404 802 1 -8.4760000000000002e-01 1.0482081948513089e+01 -7.3314253432374992e+00 4.5297808088815890e+00 0 0 0
2114 705 2 4.2380000000000001e-01 1.0119575474753999e+01 -1.6395275814645296e+00 5.6983485131151737e+00 0 0 0
2113 705 1 -8.4760000000000002e-01 1.0886360899655216e+01 -1.9137128771889607e+00 5.1179499123522438e+00 0 0 0
3865 1289 3 6.5120000000000000e-01 4.7059140825346148e+01 -4.6124144208194426e+00 4.8047922521950737e+00 -1 0 0
3866 1289 4 -3.2560000000000000e-01 4.7029885005064500e+01 -3.5588201826585526e+00 4.3473162656189226e+00 -1 0 0