LAMMPS data file via write_data, version 17 Nov 2016, timestep = 500000

3576 atoms
4 atom types
2384 bonds
2 bond types
1192 angles
2 angle types

 
-6.0000000000000000e+01 6.0000000000000000e+01 xlo xhi
-2.0000000000000000e+01 2.0000000000000000e+01 ylo yhi
-0.75000000000000e+01 3.0000000000000000e+01 zlo zhi

Bond Coeffs

1 1000 1.0
2 1000 1.149

Angle Coeffs

1 1000 109.47
2 147.70554 180.0

Masses

1 15.9994
2 1.008
3 12.0107
4 15.9994

Atoms

1 1 1 -0.8476 -20 -20 2
2 1 2 0.4238 -20 -20 3
3 1 2 0.4238 -20 -19.0572 1.66669
4 2 1 -0.8476 -20 -20 5.089
5 2 2 0.4238 -20 -20 6.089
6 2 2 0.4238 -20 -19.0572 4.75569
7 3 1 -0.8476 -20 -20 8.178
8 3 2 0.4238 -20 -20 9.178
9 3 2 0.4238 -20 -19.0572 7.84469
10 4 1 -0.8476 -20 -20 11.267
11 4 2 0.4238 -20 -20 12.267
12 4 2 0.4238 -20 -19.0572 10.9337
13 5 1 -0.8476 -20 -20 14.356
14 5 2 0.4238 -20 -20 15.356
15 5 2 0.4238 -20 -19.0572 14.0227
16 6 1 -0.8476 -20 -20 17.445
17 6 2 0.4238 -20 -20 18.445
18 6 2 0.4238 -20 -19.0572 17.1117
19 7 1 -0.8476 -20 -20 20.534
20 7 2 0.4238 -20 -20 21.534
21 7 2 0.4238 -20 -19.0572 20.2007
22 8 1 -0.8476 -20 -20 23.623
23 8 2 0.4238 -20 -20 24.623
24 8 2 0.4238 -20 -19.0572 23.2897
25 9 1 -0.8476 -20 -16.911 2
26 9 2 0.4238 -20 -16.911 3
27 9 2 0.4238 -20 -15.9682 1.66669
28 10 1 -0.8476 -20 -16.911 5.089
29 10 2 0.4238 -20 -16.911 6.089
30 10 2 0.4238 -20 -15.9682 4.75569
31 11 1 -0.8476 -20 -16.911 8.178
32 11 2 0.4238 -20 -16.911 9.178
33 11 2 0.4238 -20 -15.9682 7.84469
34 12 1 -0.8476 -20 -16.911 11.267
35 12 2 0.4238 -20 -16.911 12.267
36 12 2 0.4238 -20 -15.9682 10.9337
37 13 1 -0.8476 -20 -16.911 14.356
38 13 2 0.4238 -20 -16.911 15.356
39 13 2 0.4238 -20 -15.9682 14.0227
40 14 1 -0.8476 -20 -16.911 17.445
41 14 2 0.4238 -20 -16.911 18.445
42 14 2 0.4238 -20 -15.9682 17.1117
43 15 1 -0.8476 -20 -16.911 20.534
44 15 2 0.4238 -20 -16.911 21.534
45 15 2 0.4238 -20 -15.9682 20.2007
46 16 1 -0.8476 -20 -16.911 23.623
47 16 2 0.4238 -20 -16.911 24.623
48 16 2 0.4238 -20 -15.9682 23.2897
49 17 1 -0.8476 -20 -13.822 2
50 17 2 0.4238 -20 -13.822 3
51 17 2 0.4238 -20 -12.8792 1.66669
52 18 1 -0.8476 -20 -13.822 5.089
53 18 2 0.4238 -20 -13.822 6.089
54 18 2 0.4238 -20 -12.8792 4.75569
55 19 1 -0.8476 -20 -13.822 8.178
56 19 2 0.4238 -20 -13.822 9.178
57 19 2 0.4238 -20 -12.8792 7.84469
58 20 1 -0.8476 -20 -13.822 11.267
59 20 2 0.4238 -20 -13.822 12.267
60 20 2 0.4238 -20 -12.8792 10.9337
61 21 1 -0.8476 -20 -13.822 14.356
62 21 2 0.4238 -20 -13.822 15.356
63 21 2 0.4238 -20 -12.8792 14.0227
64 22 1 -0.8476 -20 -13.822 17.445
65 22 2 0.4238 -20 -13.822 18.445
66 22 2 0.4238 -20 -12.8792 17.1117
67 23 1 -0.8476 -20 -13.822 20.534
68 23 2 0.4238 -20 -13.822 21.534
69 23 2 0.4238 -20 -12.8792 20.2007
70 24 1 -0.8476 -20 -13.822 23.623
71 24 2 0.4238 -20 -13.822 24.623
72 24 2 0.4238 -20 -12.8792 23.2897
73 25 1 -0.8476 -20 -10.733 2
74 25 2 0.4238 -20 -10.733 3
75 25 2 0.4238 -20 -9.79018 1.66669
76 26 1 -0.8476 -20 -10.733 5.089
77 26 2 0.4238 -20 -10.733 6.089
78 26 2 0.4238 -20 -9.79018 4.75569
79 27 1 -0.8476 -20 -10.733 8.178
80 27 2 0.4238 -20 -10.733 9.178
81 27 2 0.4238 -20 -9.79018 7.84469
82 28 1 -0.8476 -20 -10.733 11.267
83 28 2 0.4238 -20 -10.733 12.267
84 28 2 0.4238 -20 -9.79018 10.9337
85 29 1 -0.8476 -20 -10.733 14.356
86 29 2 0.4238 -20 -10.733 15.356
87 29 2 0.4238 -20 -9.79018 14.0227
88 30 1 -0.8476 -20 -10.733 17.445
89 30 2 0.4238 -20 -10.733 18.445
90 30 2 0.4238 -20 -9.79018 17.1117
91 31 1 -0.8476 -20 -10.733 20.534
92 31 2 0.4238 -20 -10.733 21.534
93 31 2 0.4238 -20 -9.79018 20.2007
94 32 1 -0.8476 -20 -10.733 23.623
95 32 2 0.4238 -20 -10.733 24.623
96 32 2 0.4238 -20 -9.79018 23.2897
97 33 1 -0.8476 -20 -7.644 2
98 33 2 0.4238 -20 -7.644 3
99 33 2 0.4238 -20 -6.70118 1.66669
100 34 1 -0.8476 -20 -7.644 5.089
101 34 2 0.4238 -20 -7.644 6.089
102 34 2 0.4238 -20 -6.70118 4.75569
103 35 1 -0.8476 -20 -7.644 8.178
104 35 2 0.4238 -20 -7.644 9.178
105 35 2 0.4238 -20 -6.70118 7.84469
106 36 1 -0.8476 -20 -7.644 11.267
107 36 2 0.4238 -20 -7.644 12.267
108 36 2 0.4238 -20 -6.70118 10.9337
109 37 1 -0.8476 -20 -7.644 14.356
110 37 2 0.4238 -20 -7.644 15.356
111 37 2 0.4238 -20 -6.70118 14.0227
112 38 1 -0.8476 -20 -7.644 17.445
113 38 2 0.4238 -20 -7.644 18.445
114 38 2 0.4238 -20 -6.70118 17.1117
115 39 1 -0.8476 -20 -7.644 20.534
116 39 2 0.4238 -20 -7.644 21.534
117 39 2 0.4238 -20 -6.70118 20.2007
118 40 1 -0.8476 -20 -7.644 23.623
119 40 2 0.4238 -20 -7.644 24.623
120 40 2 0.4238 -20 -6.70118 23.2897
121 41 1 -0.8476 -20 -4.555 2
122 41 2 0.4238 -20 -4.555 3
123 41 2 0.4238 -20 -3.61218 1.66669
124 42 1 -0.8476 -20 -4.555 5.089
125 42 2 0.4238 -20 -4.555 6.089
126 42 2 0.4238 -20 -3.61218 4.75569
127 43 1 -0.8476 -20 -4.555 8.178
128 43 2 0.4238 -20 -4.555 9.178
129 43 2 0.4238 -20 -3.61218 7.84469
130 44 1 -0.8476 -20 -4.555 11.267
131 44 2 0.4238 -20 -4.555 12.267
132 44 2 0.4238 -20 -3.61218 10.9337
133 45 1 -0.8476 -20 -4.555 14.356
134 45 2 0.4238 -20 -4.555 15.356
135 45 2 0.4238 -20 -3.61218 14.0227
136 46 1 -0.8476 -20 -4.555 17.445
137 46 2 0.4238 -20 -4.555 18.445
138 46 2 0.4238 -20 -3.61218 17.1117
139 47 1 -0.8476 -20 -4.555 20.534
140 47 2 0.4238 -20 -4.555 21.534
141 47 2 0.4238 -20 -3.61218 20.2007
142 48 1 -0.8476 -20 -4.555 23.623
143 48 2 0.4238 -20 -4.555 24.623
144 48 2 0.4238 -20 -3.61218 23.2897
145 49 1 -0.8476 -20 -1.466 2
146 49 2 0.4238 -20 -1.466 3
147 49 2 0.4238 -20 -0.523184 1.66669
148 50 1 -0.8476 -20 -1.466 5.089
149 50 2 0.4238 -20 -1.466 6.089
150 50 2 0.4238 -20 -0.523184 4.75569
151 51 1 -0.8476 -20 -1.466 8.178
152 51 2 0.4238 -20 -1.466 9.178
153 51 2 0.4238 -20 -0.523184 7.84469
154 52 1 -0.8476 -20 -1.466 11.267
155 52 2 0.4238 -20 -1.466 12.267
156 52 2 0.4238 -20 -0.523184 10.9337
157 53 1 -0.8476 -20 -1.466 14.356
158 53 2 0.4238 -20 -1.466 15.356
159 53 2 0.4238 -20 -0.523184 14.0227
160 54 1 -0.8476 -20 -1.466 17.445
161 54 2 0.4238 -20 -1.466 18.445
162 54 2 0.4238 -20 -0.523184 17.1117
163 55 1 -0.8476 -20 -1.466 20.534
164 55 2 0.4238 -20 -1.466 21.534
165 55 2 0.4238 -20 -0.523184 20.2007
166 56 1 -0.8476 -20 -1.466 23.623
167 56 2 0.4238 -20 -1.466 24.623
168 56 2 0.4238 -20 -0.523184 23.2897
169 57 1 -0.8476 -20 1.623 2
170 57 2 0.4238 -20 1.623 3
171 57 2 0.4238 -20 2.56582 1.66669
172 58 1 -0.8476 -20 1.623 5.089
173 58 2 0.4238 -20 1.623 6.089
174 58 2 0.4238 -20 2.56582 4.75569
175 59 1 -0.8476 -20 1.623 8.178
176 59 2 0.4238 -20 1.623 9.178
177 59 2 0.4238 -20 2.56582 7.84469
178 60 1 -0.8476 -20 1.623 11.267
179 60 2 0.4238 -20 1.623 12.267
180 60 2 0.4238 -20 2.56582 10.9337
181 61 1 -0.8476 -20 1.623 14.356
182 61 2 0.4238 -20 1.623 15.356
183 61 2 0.4238 -20 2.56582 14.0227
184 62 1 -0.8476 -20 1.623 17.445
185 62 2 0.4238 -20 1.623 18.445
186 62 2 0.4238 -20 2.56582 17.1117
187 63 1 -0.8476 -20 1.623 20.534
188 63 2 0.4238 -20 1.623 21.534
189 63 2 0.4238 -20 2.56582 20.2007
190 64 1 -0.8476 -20 1.623 23.623
191 64 2 0.4238 -20 1.623 24.623
192 64 2 0.4238 -20 2.56582 23.2897
193 65 1 -0.8476 -20 4.712 2
194 65 2 0.4238 -20 4.712 3
195 65 2 0.4238 -20 5.65482 1.66669
196 66 1 -0.8476 -20 4.712 5.089
197 66 2 0.4238 -20 4.712 6.089
198 66 2 0.4238 -20 5.65482 4.75569
199 67 1 -0.8476 -20 4.712 8.178
200 67 2 0.4238 -20 4.712 9.178
201 67 2 0.4238 -20 5.65482 7.84469
202 68 1 -0.8476 -20 4.712 11.267
203 68 2 0.4238 -20 4.712 12.267
204 68 2 0.4238 -20 5.65482 10.9337
205 69 1 -0.8476 -20 4.712 14.356
206 69 2 0.4238 -20 4.712 15.356
207 69 2 0.4238 -20 5.65482 14.0227
208 70 1 -0.8476 -20 4.712 17.445
209 70 2 0.4238 -20 4.712 18.445
210 70 2 0.4238 -20 5.65482 17.1117
211 71 1 -0.8476 -20 4.712 20.534
212 71 2 0.4238 -20 4.712 21.534
213 71 2 0.4238 -20 5.65482 20.2007
214 72 1 -0.8476 -20 4.712 23.623
215 72 2 0.4238 -20 4.712 24.623
216 72 2 0.4238 -20 5.65482 23.2897
217 73 1 -0.8476 -20 7.801 2
218 73 2 0.4238 -20 7.801 3
219 73 2 0.4238 -20 8.74382 1.66669
220 74 1 -0.8476 -20 7.801 5.089
221 74 2 0.4238 -20 7.801 6.089
222 74 2 0.4238 -20 8.74382 4.75569
223 75 1 -0.8476 -20 7.801 8.178
224 75 2 0.4238 -20 7.801 9.178
225 75 2 0.4238 -20 8.74382 7.84469
226 76 1 -0.8476 -20 7.801 11.267
227 76 2 0.4238 -20 7.801 12.267
228 76 2 0.4238 -20 8.74382 10.9337
229 77 1 -0.8476 -20 7.801 14.356
230 77 2 0.4238 -20 7.801 15.356
231 77 2 0.4238 -20 8.74382 14.0227
232 78 1 -0.8476 -20 7.801 17.445
233 78 2 0.4238 -20 7.801 18.445
234 78 2 0.4238 -20 8.74382 17.1117
235 79 1 -0.8476 -20 7.801 20.534
236 79 2 0.4238 -20 7.801 21.534
237 79 2 0.4238 -20 8.74382 20.2007
238 80 1 -0.8476 -20 7.801 23.623
239 80 2 0.4238 -20 7.801 24.623
240 80 2 0.4238 -20 8.74382 23.2897
241 81 1 -0.8476 -20 10.89 2
242 81 2 0.4238 -20 10.89 3
243 81 2 0.4238 -20 11.8328 1.66669
244 82 1 -0.8476 -20 10.89 5.089
245 82 2 0.4238 -20 10.89 6.089
246 82 2 0.4238 -20 11.8328 4.75569
247 83 1 -0.8476 -20 10.89 8.178
248 83 2 0.4238 -20 10.89 9.178
249 83 2 0.4238 -20 11.8328 7.84469
250 84 1 -0.8476 -20 10.89 11.267
251 84 2 0.4238 -20 10.89 12.267
252 84 2 0.4238 -20 11.8328 10.9337
253 85 1 -0.8476 -20 10.89 14.356
254 85 2 0.4238 -20 10.89 15.356
255 85 2 0.4238 -20 11.8328 14.0227
256 86 1 -0.8476 -20 10.89 17.445
257 86 2 0.4238 -20 10.89 18.445
258 86 2 0.4238 -20 11.8328 17.1117
259 87 1 -0.8476 -20 10.89 20.534
260 87 2 0.4238 -20 10.89 21.534
261 87 2 0.4238 -20 11.8328 20.2007
262 88 1 -0.8476 -20 10.89 23.623
263 88 2 0.4238 -20 10.89 24.623
264 88 2 0.4238 -20 11.8328 23.2897
265 89 1 -0.8476 -20 13.979 2
266 89 2 0.4238 -20 13.979 3
267 89 2 0.4238 -20 14.9218 1.66669
268 90 1 -0.8476 -20 13.979 5.089
269 90 2 0.4238 -20 13.979 6.089
270 90 2 0.4238 -20 14.9218 4.75569
271 91 1 -0.8476 -20 13.979 8.178
272 91 2 0.4238 -20 13.979 9.178
273 91 2 0.4238 -20 14.9218 7.84469
274 92 1 -0.8476 -20 13.979 11.267
275 92 2 0.4238 -20 13.979 12.267
276 92 2 0.4238 -20 14.9218 10.9337
277 93 1 -0.8476 -20 13.979 14.356
278 93 2 0.4238 -20 13.979 15.356
279 93 2 0.4238 -20 14.9218 14.0227
280 94 1 -0.8476 -20 13.979 17.445
281 94 2 0.4238 -20 13.979 18.445
282 94 2 0.4238 -20 14.9218 17.1117
283 95 1 -0.8476 -20 13.979 20.534
284 95 2 0.4238 -20 13.979 21.534
285 95 2 0.4238 -20 14.9218 20.2007
286 96 1 -0.8476 -20 13.979 23.623
287 96 2 0.4238 -20 13.979 24.623
288 96 2 0.4238 -20 14.9218 23.2897
289 97 1 -0.8476 -16.911 -20 2
290 97 2 0.4238 -16.911 -20 3
291 97 2 0.4238 -16.911 -19.0572 1.66669
292 98 1 -0.8476 -16.911 -20 5.089
293 98 2 0.4238 -16.911 -20 6.089
294 98 2 0.4238 -16.911 -19.0572 4.75569
295 99 1 -0.8476 -16.911 -20 8.178
296 99 2 0.4238 -16.911 -20 9.178
297 99 2 0.4238 -16.911 -19.0572 7.84469
298 100 1 -0.8476 -16.911 -20 11.267
299 100 2 0.4238 -16.911 -20 12.267
300 100 2 0.4238 -16.911 -19.0572 10.9337
301 101 1 -0.8476 -16.911 -20 14.356
302 101 2 0.4238 -16.911 -20 15.356
303 101 2 0.4238 -16.911 -19.0572 14.0227
304 102 1 -0.8476 -16.911 -20 17.445
305 102 2 0.4238 -16.911 -20 18.445
306 102 2 0.4238 -16.911 -19.0572 17.1117
307 103 1 -0.8476 -16.911 -20 20.534
308 103 2 0.4238 -16.911 -20 21.534
309 103 2 0.4238 -16.911 -19.0572 20.2007
310 104 1 -0.8476 -16.911 -20 23.623
311 104 2 0.4238 -16.911 -20 24.623
312 104 2 0.4238 -16.911 -19.0572 23.2897
313 105 1 -0.8476 -16.911 -16.911 2
314 105 2 0.4238 -16.911 -16.911 3
315 105 2 0.4238 -16.911 -15.9682 1.66669
316 106 1 -0.8476 -16.911 -16.911 5.089
317 106 2 0.4238 -16.911 -16.911 6.089
318 106 2 0.4238 -16.911 -15.9682 4.75569
319 107 1 -0.8476 -16.911 -16.911 8.178
320 107 2 0.4238 -16.911 -16.911 9.178
321 107 2 0.4238 -16.911 -15.9682 7.84469
322 108 1 -0.8476 -16.911 -16.911 11.267
323 108 2 0.4238 -16.911 -16.911 12.267
324 108 2 0.4238 -16.911 -15.9682 10.9337
325 109 1 -0.8476 -16.911 -16.911 14.356
326 109 2 0.4238 -16.911 -16.911 15.356
327 109 2 0.4238 -16.911 -15.9682 14.0227
328 110 1 -0.8476 -16.911 -16.911 17.445
329 110 2 0.4238 -16.911 -16.911 18.445
330 110 2 0.4238 -16.911 -15.9682 17.1117
331 111 1 -0.8476 -16.911 -16.911 20.534
332 111 2 0.4238 -16.911 -16.911 21.534
333 111 2 0.4238 -16.911 -15.9682 20.2007
334 112 1 -0.8476 -16.911 -16.911 23.623
335 112 2 0.4238 -16.911 -16.911 24.623
336 112 2 0.4238 -16.911 -15.9682 23.2897
337 113 1 -0.8476 -16.911 -13.822 2
338 113 2 0.4238 -16.911 -13.822 3
339 113 2 0.4238 -16.911 -12.8792 1.66669
340 114 1 -0.8476 -16.911 -13.822 5.089
341 114 2 0.4238 -16.911 -13.822 6.089
342 114 2 0.4238 -16.911 -12.8792 4.75569
343 115 1 -0.8476 -16.911 -13.822 8.178
344 115 2 0.4238 -16.911 -13.822 9.178
345 115 2 0.4238 -16.911 -12.8792 7.84469
346 116 1 -0.8476 -16.911 -13.822 11.267
347 116 2 0.4238 -16.911 -13.822 12.267
348 116 2 0.4238 -16.911 -12.8792 10.9337
349 117 1 -0.8476 -16.911 -13.822 14.356
350 117 2 0.4238 -16.911 -13.822 15.356
351 117 2 0.4238 -16.911 -12.8792 14.0227
352 118 1 -0.8476 -16.911 -13.822 17.445
353 118 2 0.4238 -16.911 -13.822 18.445
354 118 2 0.4238 -16.911 -12.8792 17.1117
355 119 1 -0.8476 -16.911 -13.822 20.534
356 119 2 0.4238 -16.911 -13.822 21.534
357 119 2 0.4238 -16.911 -12.8792 20.2007
358 120 1 -0.8476 -16.911 -13.822 23.623
359 120 2 0.4238 -16.911 -13.822 24.623
360 120 2 0.4238 -16.911 -12.8792 23.2897
361 121 1 -0.8476 -16.911 -10.733 2
362 121 2 0.4238 -16.911 -10.733 3
363 121 2 0.4238 -16.911 -9.79018 1.66669
364 122 1 -0.8476 -16.911 -10.733 5.089
365 122 2 0.4238 -16.911 -10.733 6.089
366 122 2 0.4238 -16.911 -9.79018 4.75569
367 123 1 -0.8476 -16.911 -10.733 8.178
368 123 2 0.4238 -16.911 -10.733 9.178
369 123 2 0.4238 -16.911 -9.79018 7.84469
370 124 1 -0.8476 -16.911 -10.733 11.267
371 124 2 0.4238 -16.911 -10.733 12.267
372 124 2 0.4238 -16.911 -9.79018 10.9337
373 125 1 -0.8476 -16.911 -10.733 14.356
374 125 2 0.4238 -16.911 -10.733 15.356
375 125 2 0.4238 -16.911 -9.79018 14.0227
376 126 1 -0.8476 -16.911 -10.733 17.445
377 126 2 0.4238 -16.911 -10.733 18.445
378 126 2 0.4238 -16.911 -9.79018 17.1117
379 127 1 -0.8476 -16.911 -10.733 20.534
380 127 2 0.4238 -16.911 -10.733 21.534
381 127 2 0.4238 -16.911 -9.79018 20.2007
382 128 1 -0.8476 -16.911 -10.733 23.623
383 128 2 0.4238 -16.911 -10.733 24.623
384 128 2 0.4238 -16.911 -9.79018 23.2897
385 129 1 -0.8476 -16.911 -7.644 2
386 129 2 0.4238 -16.911 -7.644 3
387 129 2 0.4238 -16.911 -6.70118 1.66669
388 130 1 -0.8476 -16.911 -7.644 5.089
389 130 2 0.4238 -16.911 -7.644 6.089
390 130 2 0.4238 -16.911 -6.70118 4.75569
391 131 1 -0.8476 -16.911 -7.644 8.178
392 131 2 0.4238 -16.911 -7.644 9.178
393 131 2 0.4238 -16.911 -6.70118 7.84469
394 132 1 -0.8476 -16.911 -7.644 11.267
395 132 2 0.4238 -16.911 -7.644 12.267
396 132 2 0.4238 -16.911 -6.70118 10.9337
397 133 1 -0.8476 -16.911 -7.644 14.356
398 133 2 0.4238 -16.911 -7.644 15.356
399 133 2 0.4238 -16.911 -6.70118 14.0227
400 134 1 -0.8476 -16.911 -7.644 17.445
401 134 2 0.4238 -16.911 -7.644 18.445
402 134 2 0.4238 -16.911 -6.70118 17.1117
403 135 1 -0.8476 -16.911 -7.644 20.534
404 135 2 0.4238 -16.911 -7.644 21.534
405 135 2 0.4238 -16.911 -6.70118 20.2007
406 136 1 -0.8476 -16.911 -7.644 23.623
407 136 2 0.4238 -16.911 -7.644 24.623
408 136 2 0.4238 -16.911 -6.70118 23.2897
409 137 1 -0.8476 -16.911 -4.555 2
410 137 2 0.4238 -16.911 -4.555 3
411 137 2 0.4238 -16.911 -3.61218 1.66669
412 138 1 -0.8476 -16.911 -4.555 5.089
413 138 2 0.4238 -16.911 -4.555 6.089
414 138 2 0.4238 -16.911 -3.61218 4.75569
415 139 1 -0.8476 -16.911 -4.555 8.178
416 139 2 0.4238 -16.911 -4.555 9.178
417 139 2 0.4238 -16.911 -3.61218 7.84469
418 140 1 -0.8476 -16.911 -4.555 11.267
419 140 2 0.4238 -16.911 -4.555 12.267
420 140 2 0.4238 -16.911 -3.61218 10.9337
421 141 1 -0.8476 -16.911 -4.555 14.356
422 141 2 0.4238 -16.911 -4.555 15.356
423 141 2 0.4238 -16.911 -3.61218 14.0227
424 142 1 -0.8476 -16.911 -4.555 17.445
425 142 2 0.4238 -16.911 -4.555 18.445
426 142 2 0.4238 -16.911 -3.61218 17.1117
427 143 1 -0.8476 -16.911 -4.555 20.534
428 143 2 0.4238 -16.911 -4.555 21.534
429 143 2 0.4238 -16.911 -3.61218 20.2007
430 144 1 -0.8476 -16.911 -4.555 23.623
431 144 2 0.4238 -16.911 -4.555 24.623
432 144 2 0.4238 -16.911 -3.61218 23.2897
433 145 1 -0.8476 -16.911 -1.466 2
434 145 2 0.4238 -16.911 -1.466 3
435 145 2 0.4238 -16.911 -0.523184 1.66669
436 146 1 -0.8476 -16.911 -1.466 5.089
437 146 2 0.4238 -16.911 -1.466 6.089
438 146 2 0.4238 -16.911 -0.523184 4.75569
439 147 1 -0.8476 -16.911 -1.466 8.178
440 147 2 0.4238 -16.911 -1.466 9.178
441 147 2 0.4238 -16.911 -0.523184 7.84469
442 148 1 -0.8476 -16.911 -1.466 11.267
443 148 2 0.4238 -16.911 -1.466 12.267
444 148 2 0.4238 -16.911 -0.523184 10.9337
445 149 1 -0.8476 -16.911 -1.466 14.356
446 149 2 0.4238 -16.911 -1.466 15.356
447 149 2 0.4238 -16.911 -0.523184 14.0227
448 150 1 -0.8476 -16.911 -1.466 17.445
449 150 2 0.4238 -16.911 -1.466 18.445
450 150 2 0.4238 -16.911 -0.523184 17.1117
451 151 1 -0.8476 -16.911 -1.466 20.534
452 151 2 0.4238 -16.911 -1.466 21.534
453 151 2 0.4238 -16.911 -0.523184 20.2007
454 152 1 -0.8476 -16.911 -1.466 23.623
455 152 2 0.4238 -16.911 -1.466 24.623
456 152 2 0.4238 -16.911 -0.523184 23.2897
457 153 1 -0.8476 -16.911 1.623 2
458 153 2 0.4238 -16.911 1.623 3
459 153 2 0.4238 -16.911 2.56582 1.66669
460 154 1 -0.8476 -16.911 1.623 5.089
461 154 2 0.4238 -16.911 1.623 6.089
462 154 2 0.4238 -16.911 2.56582 4.75569
463 155 1 -0.8476 -16.911 1.623 8.178
464 155 2 0.4238 -16.911 1.623 9.178
465 155 2 0.4238 -16.911 2.56582 7.84469
466 156 1 -0.8476 -16.911 1.623 11.267
467 156 2 0.4238 -16.911 1.623 12.267
468 156 2 0.4238 -16.911 2.56582 10.9337
469 157 1 -0.8476 -16.911 1.623 14.356
470 157 2 0.4238 -16.911 1.623 15.356
471 157 2 0.4238 -16.911 2.56582 14.0227
472 158 1 -0.8476 -16.911 1.623 17.445
473 158 2 0.4238 -16.911 1.623 18.445
474 158 2 0.4238 -16.911 2.56582 17.1117
475 159 1 -0.8476 -16.911 1.623 20.534
476 159 2 0.4238 -16.911 1.623 21.534
477 159 2 0.4238 -16.911 2.56582 20.2007
478 160 1 -0.8476 -16.911 1.623 23.623
479 160 2 0.4238 -16.911 1.623 24.623
480 160 2 0.4238 -16.911 2.56582 23.2897
481 161 1 -0.8476 -16.911 4.712 2
482 161 2 0.4238 -16.911 4.712 3
483 161 2 0.4238 -16.911 5.65482 1.66669
484 162 1 -0.8476 -16.911 4.712 5.089
485 162 2 0.4238 -16.911 4.712 6.089
486 162 2 0.4238 -16.911 5.65482 4.75569
487 163 1 -0.8476 -16.911 4.712 8.178
488 163 2 0.4238 -16.911 4.712 9.178
489 163 2 0.4238 -16.911 5.65482 7.84469
490 164 1 -0.8476 -16.911 4.712 11.267
491 164 2 0.4238 -16.911 4.712 12.267
492 164 2 0.4238 -16.911 5.65482 10.9337
493 165 1 -0.8476 -16.911 4.712 14.356
494 165 2 0.4238 -16.911 4.712 15.356
495 165 2 0.4238 -16.911 5.65482 14.0227
496 166 1 -0.8476 -16.911 4.712 17.445
497 166 2 0.4238 -16.911 4.712 18.445
498 166 2 0.4238 -16.911 5.65482 17.1117
499 167 1 -0.8476 -16.911 4.712 20.534
500 167 2 0.4238 -16.911 4.712 21.534
501 167 2 0.4238 -16.911 5.65482 20.2007
502 168 1 -0.8476 -16.911 4.712 23.623
503 168 2 0.4238 -16.911 4.712 24.623
504 168 2 0.4238 -16.911 5.65482 23.2897
505 169 1 -0.8476 -16.911 7.801 2
506 169 2 0.4238 -16.911 7.801 3
507 169 2 0.4238 -16.911 8.74382 1.66669
508 170 1 -0.8476 -16.911 7.801 5.089
509 170 2 0.4238 -16.911 7.801 6.089
510 170 2 0.4238 -16.911 8.74382 4.75569
511 171 1 -0.8476 -16.911 7.801 8.178
512 171 2 0.4238 -16.911 7.801 9.178
513 171 2 0.4238 -16.911 8.74382 7.84469
514 172 1 -0.8476 -16.911 7.801 11.267
515 172 2 0.4238 -16.911 7.801 12.267
516 172 2 0.4238 -16.911 8.74382 10.9337
517 173 1 -0.8476 -16.911 7.801 14.356
518 173 2 0.4238 -16.911 7.801 15.356
519 173 2 0.4238 -16.911 8.74382 14.0227
520 174 1 -0.8476 -16.911 7.801 17.445
521 174 2 0.4238 -16.911 7.801 18.445
522 174 2 0.4238 -16.911 8.74382 17.1117
523 175 1 -0.8476 -16.911 7.801 20.534
524 175 2 0.4238 -16.911 7.801 21.534
525 175 2 0.4238 -16.911 8.74382 20.2007
526 176 1 -0.8476 -16.911 7.801 23.623
527 176 2 0.4238 -16.911 7.801 24.623
528 176 2 0.4238 -16.911 8.74382 23.2897
529 177 1 -0.8476 -16.911 10.89 2
530 177 2 0.4238 -16.911 10.89 3
531 177 2 0.4238 -16.911 11.8328 1.66669
532 178 1 -0.8476 -16.911 10.89 5.089
533 178 2 0.4238 -16.911 10.89 6.089
534 178 2 0.4238 -16.911 11.8328 4.75569
535 179 1 -0.8476 -16.911 10.89 8.178
536 179 2 0.4238 -16.911 10.89 9.178
537 179 2 0.4238 -16.911 11.8328 7.84469
538 180 1 -0.8476 -16.911 10.89 11.267
539 180 2 0.4238 -16.911 10.89 12.267
540 180 2 0.4238 -16.911 11.8328 10.9337
541 181 1 -0.8476 -16.911 10.89 14.356
542 181 2 0.4238 -16.911 10.89 15.356
543 181 2 0.4238 -16.911 11.8328 14.0227
544 182 1 -0.8476 -16.911 10.89 17.445
545 182 2 0.4238 -16.911 10.89 18.445
546 182 2 0.4238 -16.911 11.8328 17.1117
547 183 1 -0.8476 -16.911 10.89 20.534
548 183 2 0.4238 -16.911 10.89 21.534
549 183 2 0.4238 -16.911 11.8328 20.2007
550 184 1 -0.8476 -16.911 10.89 23.623
551 184 2 0.4238 -16.911 10.89 24.623
552 184 2 0.4238 -16.911 11.8328 23.2897
553 185 1 -0.8476 -16.911 13.979 2
554 185 2 0.4238 -16.911 13.979 3
555 185 2 0.4238 -16.911 14.9218 1.66669
556 186 1 -0.8476 -16.911 13.979 5.089
557 186 2 0.4238 -16.911 13.979 6.089
558 186 2 0.4238 -16.911 14.9218 4.75569
559 187 1 -0.8476 -16.911 13.979 8.178
560 187 2 0.4238 -16.911 13.979 9.178
561 187 2 0.4238 -16.911 14.9218 7.84469
562 188 1 -0.8476 -16.911 13.979 11.267
563 188 2 0.4238 -16.911 13.979 12.267
564 188 2 0.4238 -16.911 14.9218 10.9337
565 189 1 -0.8476 -16.911 13.979 14.356
566 189 2 0.4238 -16.911 13.979 15.356
567 189 2 0.4238 -16.911 14.9218 14.0227
568 190 1 -0.8476 -16.911 13.979 17.445
569 190 2 0.4238 -16.911 13.979 18.445
570 190 2 0.4238 -16.911 14.9218 17.1117
571 191 1 -0.8476 -16.911 13.979 20.534
572 191 2 0.4238 -16.911 13.979 21.534
573 191 2 0.4238 -16.911 14.9218 20.2007
574 192 1 -0.8476 -16.911 13.979 23.623
575 192 2 0.4238 -16.911 13.979 24.623
576 192 2 0.4238 -16.911 14.9218 23.2897
577 193 1 -0.8476 -13.822 -20 2
578 193 2 0.4238 -13.822 -20 3
579 193 2 0.4238 -13.822 -19.0572 1.66669
580 194 1 -0.8476 -13.822 -20 5.089
581 194 2 0.4238 -13.822 -20 6.089
582 194 2 0.4238 -13.822 -19.0572 4.75569
583 195 1 -0.8476 -13.822 -20 8.178
584 195 2 0.4238 -13.822 -20 9.178
585 195 2 0.4238 -13.822 -19.0572 7.84469
586 196 1 -0.8476 -13.822 -20 11.267
587 196 2 0.4238 -13.822 -20 12.267
588 196 2 0.4238 -13.822 -19.0572 10.9337
589 197 1 -0.8476 -13.822 -20 14.356
590 197 2 0.4238 -13.822 -20 15.356
591 197 2 0.4238 -13.822 -19.0572 14.0227
592 198 1 -0.8476 -13.822 -20 17.445
593 198 2 0.4238 -13.822 -20 18.445
594 198 2 0.4238 -13.822 -19.0572 17.1117
595 199 1 -0.8476 -13.822 -20 20.534
596 199 2 0.4238 -13.822 -20 21.534
597 199 2 0.4238 -13.822 -19.0572 20.2007
598 200 1 -0.8476 -13.822 -20 23.623
599 200 2 0.4238 -13.822 -20 24.623
600 200 2 0.4238 -13.822 -19.0572 23.2897
601 201 1 -0.8476 -13.822 -16.911 2
602 201 2 0.4238 -13.822 -16.911 3
603 201 2 0.4238 -13.822 -15.9682 1.66669
604 202 1 -0.8476 -13.822 -16.911 5.089
605 202 2 0.4238 -13.822 -16.911 6.089
606 202 2 0.4238 -13.822 -15.9682 4.75569
607 203 1 -0.8476 -13.822 -16.911 8.178
608 203 2 0.4238 -13.822 -16.911 9.178
609 203 2 0.4238 -13.822 -15.9682 7.84469
610 204 1 -0.8476 -13.822 -16.911 11.267
611 204 2 0.4238 -13.822 -16.911 12.267
612 204 2 0.4238 -13.822 -15.9682 10.9337
613 205 1 -0.8476 -13.822 -16.911 14.356
614 205 2 0.4238 -13.822 -16.911 15.356
615 205 2 0.4238 -13.822 -15.9682 14.0227
616 206 1 -0.8476 -13.822 -16.911 17.445
617 206 2 0.4238 -13.822 -16.911 18.445
618 206 2 0.4238 -13.822 -15.9682 17.1117
619 207 1 -0.8476 -13.822 -16.911 20.534
620 207 2 0.4238 -13.822 -16.911 21.534
621 207 2 0.4238 -13.822 -15.9682 20.2007
622 208 1 -0.8476 -13.822 -16.911 23.623
623 208 2 0.4238 -13.822 -16.911 24.623
624 208 2 0.4238 -13.822 -15.9682 23.2897
625 209 1 -0.8476 -13.822 -13.822 2
626 209 2 0.4238 -13.822 -13.822 3
627 209 2 0.4238 -13.822 -12.8792 1.66669
628 210 1 -0.8476 -13.822 -13.822 5.089
629 210 2 0.4238 -13.822 -13.822 6.089
630 210 2 0.4238 -13.822 -12.8792 4.75569
631 211 1 -0.8476 -13.822 -13.822 8.178
632 211 2 0.4238 -13.822 -13.822 9.178
633 211 2 0.4238 -13.822 -12.8792 7.84469
634 212 1 -0.8476 -13.822 -13.822 11.267
635 212 2 0.4238 -13.822 -13.822 12.267
636 212 2 0.4238 -13.822 -12.8792 10.9337
637 213 1 -0.8476 -13.822 -13.822 14.356
638 213 2 0.4238 -13.822 -13.822 15.356
639 213 2 0.4238 -13.822 -12.8792 14.0227
640 214 1 -0.8476 -13.822 -13.822 17.445
641 214 2 0.4238 -13.822 -13.822 18.445
642 214 2 0.4238 -13.822 -12.8792 17.1117
643 215 1 -0.8476 -13.822 -13.822 20.534
644 215 2 0.4238 -13.822 -13.822 21.534
645 215 2 0.4238 -13.822 -12.8792 20.2007
646 216 1 -0.8476 -13.822 -13.822 23.623
647 216 2 0.4238 -13.822 -13.822 24.623
648 216 2 0.4238 -13.822 -12.8792 23.2897
649 217 1 -0.8476 -13.822 -10.733 2
650 217 2 0.4238 -13.822 -10.733 3
651 217 2 0.4238 -13.822 -9.79018 1.66669
652 218 1 -0.8476 -13.822 -10.733 5.089
653 218 2 0.4238 -13.822 -10.733 6.089
654 218 2 0.4238 -13.822 -9.79018 4.75569
655 219 1 -0.8476 -13.822 -10.733 8.178
656 219 2 0.4238 -13.822 -10.733 9.178
657 219 2 0.4238 -13.822 -9.79018 7.84469
658 220 1 -0.8476 -13.822 -10.733 11.267
659 220 2 0.4238 -13.822 -10.733 12.267
660 220 2 0.4238 -13.822 -9.79018 10.9337
661 221 1 -0.8476 -13.822 -10.733 14.356
662 221 2 0.4238 -13.822 -10.733 15.356
663 221 2 0.4238 -13.822 -9.79018 14.0227
664 222 1 -0.8476 -13.822 -10.733 17.445
665 222 2 0.4238 -13.822 -10.733 18.445
666 222 2 0.4238 -13.822 -9.79018 17.1117
667 223 1 -0.8476 -13.822 -10.733 20.534
668 223 2 0.4238 -13.822 -10.733 21.534
669 223 2 0.4238 -13.822 -9.79018 20.2007
670 224 1 -0.8476 -13.822 -10.733 23.623
671 224 2 0.4238 -13.822 -10.733 24.623
672 224 2 0.4238 -13.822 -9.79018 23.2897
673 225 1 -0.8476 -13.822 -7.644 2
674 225 2 0.4238 -13.822 -7.644 3
675 225 2 0.4238 -13.822 -6.70118 1.66669
676 226 1 -0.8476 -13.822 -7.644 5.089
677 226 2 0.4238 -13.822 -7.644 6.089
678 226 2 0.4238 -13.822 -6.70118 4.75569
679 227 1 -0.8476 -13.822 -7.644 8.178
680 227 2 0.4238 -13.822 -7.644 9.178
681 227 2 0.4238 -13.822 -6.70118 7.84469
682 228 1 -0.8476 -13.822 -7.644 11.267
683 228 2 0.4238 -13.822 -7.644 12.267
684 228 2 0.4238 -13.822 -6.70118 10.9337
685 229 1 -0.8476 -13.822 -7.644 14.356
686 229 2 0.4238 -13.822 -7.644 15.356
687 229 2 0.4238 -13.822 -6.70118 14.0227
688 230 1 -0.8476 -13.822 -7.644 17.445
689 230 2 0.4238 -13.822 -7.644 18.445
690 230 2 0.4238 -13.822 -6.70118 17.1117
691 231 1 -0.8476 -13.822 -7.644 20.534
692 231 2 0.4238 -13.822 -7.644 21.534
693 231 2 0.4238 -13.822 -6.70118 20.2007
694 232 1 -0.8476 -13.822 -7.644 23.623
695 232 2 0.4238 -13.822 -7.644 24.623
696 232 2 0.4238 -13.822 -6.70118 23.2897
697 233 1 -0.8476 -13.822 -4.555 2
698 233 2 0.4238 -13.822 -4.555 3
699 233 2 0.4238 -13.822 -3.61218 1.66669
700 234 1 -0.8476 -13.822 -4.555 5.089
701 234 2 0.4238 -13.822 -4.555 6.089
702 234 2 0.4238 -13.822 -3.61218 4.75569
703 235 1 -0.8476 -13.822 -4.555 8.178
704 235 2 0.4238 -13.822 -4.555 9.178
705 235 2 0.4238 -13.822 -3.61218 7.84469
706 236 1 -0.8476 -13.822 -4.555 11.267
707 236 2 0.4238 -13.822 -4.555 12.267
708 236 2 0.4238 -13.822 -3.61218 10.9337
709 237 1 -0.8476 -13.822 -4.555 14.356
710 237 2 0.4238 -13.822 -4.555 15.356
711 237 2 0.4238 -13.822 -3.61218 14.0227
712 238 1 -0.8476 -13.822 -4.555 17.445
713 238 2 0.4238 -13.822 -4.555 18.445
714 238 2 0.4238 -13.822 -3.61218 17.1117
715 239 1 -0.8476 -13.822 -4.555 20.534
716 239 2 0.4238 -13.822 -4.555 21.534
717 239 2 0.4238 -13.822 -3.61218 20.2007
718 240 1 -0.8476 -13.822 -4.555 23.623
719 240 2 0.4238 -13.822 -4.555 24.623
720 240 2 0.4238 -13.822 -3.61218 23.2897
721 241 1 -0.8476 -13.822 -1.466 2
722 241 2 0.4238 -13.822 -1.466 3
723 241 2 0.4238 -13.822 -0.523184 1.66669
724 242 1 -0.8476 -13.822 -1.466 5.089
725 242 2 0.4238 -13.822 -1.466 6.089
726 242 2 0.4238 -13.822 -0.523184 4.75569
727 243 1 -0.8476 -13.822 -1.466 8.178
728 243 2 0.4238 -13.822 -1.466 9.178
729 243 2 0.4238 -13.822 -0.523184 7.84469
730 244 1 -0.8476 -13.822 -1.466 11.267
731 244 2 0.4238 -13.822 -1.466 12.267
732 244 2 0.4238 -13.822 -0.523184 10.9337
733 245 1 -0.8476 -13.822 -1.466 14.356
734 245 2 0.4238 -13.822 -1.466 15.356
735 245 2 0.4238 -13.822 -0.523184 14.0227
736 246 1 -0.8476 -13.822 -1.466 17.445
737 246 2 0.4238 -13.822 -1.466 18.445
738 246 2 0.4238 -13.822 -0.523184 17.1117
739 247 1 -0.8476 -13.822 -1.466 20.534
740 247 2 0.4238 -13.822 -1.466 21.534
741 247 2 0.4238 -13.822 -0.523184 20.2007
742 248 1 -0.8476 -13.822 -1.466 23.623
743 248 2 0.4238 -13.822 -1.466 24.623
744 248 2 0.4238 -13.822 -0.523184 23.2897
745 249 1 -0.8476 -13.822 1.623 2
746 249 2 0.4238 -13.822 1.623 3
747 249 2 0.4238 -13.822 2.56582 1.66669
748 250 1 -0.8476 -13.822 1.623 5.089
749 250 2 0.4238 -13.822 1.623 6.089
750 250 2 0.4238 -13.822 2.56582 4.75569
751 251 1 -0.8476 -13.822 1.623 8.178
752 251 2 0.4238 -13.822 1.623 9.178
753 251 2 0.4238 -13.822 2.56582 7.84469
754 252 1 -0.8476 -13.822 1.623 11.267
755 252 2 0.4238 -13.822 1.623 12.267
756 252 2 0.4238 -13.822 2.56582 10.9337
757 253 1 -0.8476 -13.822 1.623 14.356
758 253 2 0.4238 -13.822 1.623 15.356
759 253 2 0.4238 -13.822 2.56582 14.0227
760 254 1 -0.8476 -13.822 1.623 17.445
761 254 2 0.4238 -13.822 1.623 18.445
762 254 2 0.4238 -13.822 2.56582 17.1117
763 255 1 -0.8476 -13.822 1.623 20.534
764 255 2 0.4238 -13.822 1.623 21.534
765 255 2 0.4238 -13.822 2.56582 20.2007
766 256 1 -0.8476 -13.822 1.623 23.623
767 256 2 0.4238 -13.822 1.623 24.623
768 256 2 0.4238 -13.822 2.56582 23.2897
769 257 1 -0.8476 -13.822 4.712 2
770 257 2 0.4238 -13.822 4.712 3
771 257 2 0.4238 -13.822 5.65482 1.66669
772 258 1 -0.8476 -13.822 4.712 5.089
773 258 2 0.4238 -13.822 4.712 6.089
774 258 2 0.4238 -13.822 5.65482 4.75569
775 259 1 -0.8476 -13.822 4.712 8.178
776 259 2 0.4238 -13.822 4.712 9.178
777 259 2 0.4238 -13.822 5.65482 7.84469
778 260 1 -0.8476 -13.822 4.712 11.267
779 260 2 0.4238 -13.822 4.712 12.267
780 260 2 0.4238 -13.822 5.65482 10.9337
781 261 1 -0.8476 -13.822 4.712 14.356
782 261 2 0.4238 -13.822 4.712 15.356
783 261 2 0.4238 -13.822 5.65482 14.0227
784 262 1 -0.8476 -13.822 4.712 17.445
785 262 2 0.4238 -13.822 4.712 18.445
786 262 2 0.4238 -13.822 5.65482 17.1117
787 263 1 -0.8476 -13.822 4.712 20.534
788 263 2 0.4238 -13.822 4.712 21.534