LAMMPS data file via write_data, version 17 Nov 2016, timestep = 500000

5376 atoms
4 atom types
3584 bonds
2 bond types
1792 angles
2 angle types

 
-6.0000000000000000e+01 6.0000000000000000e+01 xlo xhi
-2.0000000000000000e+01 2.0000000000000000e+01 ylo yhi
-0.75000000000000e+01 3.0000000000000000e+01 zlo zhi

Bond Coeffs

1 1000 1.0
2 1000 1.149

Angle Coeffs

1 1000 109.47
2 147.70554 180.0

Masses

1 15.9994
2 1.008
3 12.0107
4 15.9994

Atoms

4418 1473 4 -3.2560000000000000e-01 -5.8104669095571928e+01 -1.5190274059906672e+01 3.4130959435779524e+00 0 0 0
4204 1402 3 6.5120000000000000e-01 -5.5520437593920839e+01 -1.6289318889799038e+01 5.5285020556873414e+00 0 0 0
4515 1505 4 -3.2560000000000000e-01 5.9257666467016904e+01 -1.6118983440064625e+01 1.7294871366525790e+00 -1 1 0
4205 1402 4 -3.2560000000000000e-01 -5.4660762311644135e+01 -1.6610654212452744e+01 4.8371967544943724e+00 0 0 0
4805 1602 4 -3.2560000000000000e-01 -5.0300585664661000e+01 -1.7874730093998878e+01 1.9802023737448471e+00 0 0 0
4804 1602 3 6.5120000000000000e-01 -5.0448794865707278e+01 -1.8081397869324555e+01 3.1007038076427054e+00 0 0 0
4806 1602 4 -3.2560000000000000e-01 -5.0597004066753556e+01 -1.8288065644650231e+01 4.2212052415405648e+00 0 0 0
4815 1605 4 -3.2560000000000000e-01 -4.7707289432548599e+01 -1.8826936822935121e+01 1.3719806427734451e+00 0 0 0
4813 1605 3 6.5120000000000000e-01 -4.6687722026958930e+01 -1.8507142889621722e+01 1.7943728132443340e+00 0 0 0
4814 1605 4 -3.2560000000000000e-01 -4.5668154621369268e+01 -1.8187348956308323e+01 2.2167649837152226e+00 0 0 0
4837 1613 3 6.5120000000000000e-01 -4.5944719488950163e+01 -1.4501866440869581e+01 1.3272705344763065e+00 0 0 0
4838 1613 4 -3.2560000000000000e-01 -4.4973443876835447e+01 -1.4845657469825198e+01 1.8358296890697674e+00 0 0 0
5366 1789 4 -3.2560000000000000e-01 -4.2024268347505519e+01 -1.7186168740275988e+01 8.9160439823214732e-01 0 1 0
5367 1789 4 -3.2560000000000000e-01 -4.0897141928816190e+01 -1.5184820113207481e+01 9.6227057984372266e-01 0 1 0
5365 1789 3 6.5120000000000000e-01 -4.1460705138160854e+01 -1.6185494426741734e+01 9.2693748903793505e-01 0 1 0
5235 1745 4 -3.2560000000000000e-01 -3.8866997558453924e+01 -1.6753754947518111e+01 2.9639015742750479e+00 0 1 0
4915 1639 3 6.5120000000000000e-01 -3.7038824574783710e+01 -1.8255444187680901e+01 9.1882288366527032e-01 0 0 0
4916 1639 4 -3.2560000000000000e-01 -3.6060446693559648e+01 -1.7663660604286527e+01 1.0318269187986862e+00 0 0 0
5281 1761 3 6.5120000000000000e-01 -2.0607860322837436e+01 -1.5874962261939512e+01 2.1082546124896604e+00 0 0 0
5283 1761 4 -3.2560000000000000e-01 -2.0605606871053258e+01 -1.5510499852364433e+01 1.0185927043907388e+00 0 0 0
5282 1761 4 -3.2560000000000000e-01 -2.0610113774621613e+01 -1.6239424671514591e+01 3.1979165205885822e+00 0 0 0
5342 1781 4 -3.2560000000000000e-01 -2.0495443335279703e+01 1.8941919310974491e+01 2.7995952271020901e+00 0 0 0
292 98 1 -8.4760000000000002e-01 -1.6965801562566050e+01 -1.6327807342052182e+01 3.9601116878823373e+00 0 0 0
294 98 2 4.2380000000000001e-01 -1.6602361148575913e+01 -1.6230945322260258e+01 3.0335609819301457e+00 0 0 0
293 98 2 4.2380000000000001e-01 -1.6458536977314076e+01 -1.7040726784453899e+01 4.4442898670630662e+00 0 0 0
36 12 2 4.2380000000000001e-01 -1.5112347980403113e+01 -1.8082790006705405e+01 5.2068800414813010e+00 0 0 0
5259 1753 4 -3.2560000000000000e-01 -1.5189633254098617e+01 -1.9431084699704261e+01 2.0048876840947791e+00 0 0 0
291 97 2 4.2380000000000001e-01 -1.3599398297462338e+01 -1.6713116715376529e+01 5.1780341956601843e+00 0 0 0
73 25 1 -8.4760000000000002e-01 -1.3756158214743055e+01 -1.6583794527490770e+01 6.1734004006078513e-01 0 0 0
75 25 2 4.2380000000000001e-01 -1.4518471586121089e+01 -1.6617625625311529e+01 -2.8987190634702897e-02 0 0 0
74 25 2 4.2380000000000001e-01 -1.3512977784121887e+01 -1.5630468657455650e+01 7.9631787020933220e-01 0 0 0
582 194 2 4.2380000000000001e-01 -1.0730435256928546e+01 -1.8425394711604110e+01 8.9777153464392401e-01 0 0 0
580 194 1 -8.4760000000000002e-01 -9.7458614780132979e+00 -1.8551695763108917e+01 1.0187257175452478e+00 0 0 0
1491 497 2 4.2380000000000001e-01 -9.3486309211284944e+00 -1.7937384367162121e+01 2.4639945688209171e+00 0 0 0
289 97 1 -8.4760000000000002e-01 -1.3546694641613918e+01 -1.7188646599583183e+01 4.2999333757160203e+00 0 0 0
290 97 2 4.2380000000000001e-01 -1.2884388914403674e+01 -1.6726786683883081e+01 3.7099871561552868e+00 0 0 0
899 300 2 4.2380000000000001e-01 -1.0046201833801538e+01 -1.5719673935446297e+01 7.0322511082372008e-01 0 0 0
898 300 1 -8.4760000000000002e-01 -9.3136407646436403e+00 -1.5308426446345074e+01 1.2456546294362087e+00 0 0 0
900 300 2 4.2380000000000001e-01 -9.0364814634623567e+00 -1.5943105509573838e+01 1.9669908467910313e+00 0 0 0
2002 668 1 -8.4760000000000002e-01 -1.3014894056622232e+01 -1.3809079593918719e+01 1.0483115411688881e+00 0 1 0
581 194 2 4.2380000000000001e-01 -9.5057297826619589e+00 -1.9503152019427819e+01 8.2619582064788011e-01 0 0 0
1489 497 1 -8.4760000000000002e-01 -9.2427046646452276e+00 -1.7561466443721031e+01 3.3845556689784106e+00 0 0 0
2003 668 2 4.2380000000000001e-01 -1.3907928059463426e+01 -1.3391593078365272e+01 1.2162260405442353e+00 0 1 0
27 9 2 4.2380000000000001e-01 -9.5357191274309443e+00 -1.4684464798245180e+01 5.4635730337586006e+00 0 0 0
1490 497 2 4.2380000000000001e-01 -9.3436268199157997e+00 -1.8294258710614930e+01 4.0574822713326677e+00 0 0 0
1754 585 2 4.2380000000000001e-01 -5.5958061161360257e+00 -1.7624608313799399e+01 1.4183407359526492e+00 0 0 0
1753 585 1 -8.4760000000000002e-01 -5.2633128699536558e+00 -1.7919139534394816e+01 2.3142757789874011e+00 0 0 0
1755 585 2 4.2380000000000001e-01 -5.7336321481184536e+00 -1.7403423803730615e+01 3.0303794431534450e+00 0 0 0
1850 617 2 4.2380000000000001e-01 -3.4492494481008520e+00 -1.7764757412117913e+01 2.3401031789648150e+00 0 0 0
338 113 2 4.2380000000000001e-01 -7.5381627238698909e+00 -1.6770008089573782e+01 3.9657308039227388e+00 0 0 0
337 113 1 -8.4760000000000002e-01 -6.5814838383798770e+00 -1.6581513920003061e+01 4.1876214483749772e+00 0 0 0
1712 571 2 4.2380000000000001e-01 -5.2559726714323984e+00 -1.9156761517374086e+01 3.9081062550566914e+00 0 1 0
339 113 2 4.2380000000000001e-01 -6.3711053767872379e+00 -1.6947912516506182e+01 5.0939659565386517e+00 0 0 0
2408 803 2 4.2380000000000001e-01 -5.2242224689275574e+00 -1.2896029519107922e+01 1.2118447836132582e+00 0 0 0
1849 617 1 -8.4760000000000002e-01 -2.4804104317888416e+00 -1.7531862112898573e+01 2.4244283832225491e+00 0 0 0
1851 617 2 4.2380000000000001e-01 -2.3153320706447258e+00 -1.6637154011848061e+01 2.0093962674814119e+00 0 0 0
2065 689 1 -8.4760000000000002e-01 8.3501460638382541e-01 -1.6892341658688593e+01 6.9382856584794739e-01 0 0 0
2067 689 2 4.2380000000000001e-01 2.7662952262367591e-02 -1.6356146918514121e+01 9.4009245539851705e-01 0 0 0
2885 962 2 4.2380000000000001e-01 -1.4556471321119420e+00 -1.4587518925083126e+01 1.3822983373655116e+00 0 0 0
2884 962 1 -8.4760000000000002e-01 -2.2229374991691895e+00 -1.5220158606191738e+01 1.2772625029662579e+00 0 0 0
2307 769 2 4.2380000000000001e-01 2.6247853304058291e+00 -1.9956221008094431e+01 2.2896813889009735e+00 0 0 0
2886 962 2 4.2380000000000001e-01 -3.0347380516650495e+00 -1.4714075154718570e+01 9.8601209659329037e-01 0 0 0
966 322 2 4.2380000000000001e-01 -5.1576021350404555e-01 -1.8351172875787871e+01 5.0458018980536510e+00 0 0 0
2066 689 2 4.2380000000000001e-01 6.0374985735471287e-01 -1.7865210136479543e+01 7.0042710941590569e-01 0 0 0
1781 594 2 4.2380000000000001e-01 -1.0581919537311626e+00 -1.8870347886685781e+01 1.8374044416869175e+00 0 0 0
3152 1051 2 4.2380000000000001e-01 2.5260859158883022e+00 -1.6972693831600100e+01 4.9401892750979783e+00 0 1 0
3151 1051 1 -8.4760000000000002e-01 2.3886725943835683e+00 -1.7519072365435338e+01 4.1140003881979590e+00 0 1 0
3153 1051 2 4.2380000000000001e-01 1.4120530931505952e+00 -1.7693336912440312e+01 3.9882481970893715e+00 0 1 0
2329 777 1 -8.4760000000000002e-01 -9.0238047884045902e-01 -1.5001176168714395e+01 4.9873862432134581e+00 0 0 0
2906 969 2 4.2380000000000001e-01 -5.5918774396072157e-01 -1.4102850982202169e+01 3.3019916360070010e+00 0 0 0
2601 867 2 4.2380000000000001e-01 1.7502018012237173e+00 -1.5081492850642563e+01 5.0985657893091241e-01 0 0 0
965 322 2 4.2380000000000001e-01 -1.3276352489870384e+00 -1.7705213555560483e+01 3.7847624094289429e+00 0 0 0
964 322 1 -8.4760000000000002e-01 -5.6779367175603501e-01 -1.7572052339821230e+01 4.4210869085125042e+00 0 0 0
2017 673 1 -8.4760000000000002e-01 5.2525446454667248e+00 -1.4704628257296354e+01 5.8893390163026149e-01 0 0 0
2018 673 2 4.2380000000000001e-01 6.2481522800756295e+00 -1.4630823612635030e+01 6.4653869600431579e-01 0 0 0
2619 873 2 4.2380000000000001e-01 4.9132617669417762e+00 -1.5730414296965103e+01 2.1762158656161317e+00 0 0 0
1732 578 1 -8.4760000000000002e-01 6.8889032605452796e+00 -1.7969435236414171e+01 3.4013048365627152e+00 0 0 0
1733 578 2 4.2380000000000001e-01 6.8075961951766057e+00 -1.8293605616561759e+01 4.3438029669354510e+00 0 0 0
1734 578 2 4.2380000000000001e-01 6.2010715992989542e+00 -1.7263847683569836e+01 3.2310074286016324e+00 0 0 0
2359 787 1 -8.4760000000000002e-01 8.0750840029589135e+00 -1.4340011723888566e+01 1.1826870293426615e+00 0 0 0
2360 787 2 4.2380000000000001e-01 8.1798129240994815e+00 -1.4130007272649271e+01 2.1547621208538139e+00 0 0 0
2618 873 2 4.2380000000000001e-01 3.7044781994367217e+00 -1.6309894275257207e+01 3.1087568233162939e+00 0 0 0
2617 873 1 -8.4760000000000002e-01 4.6941678331159604e+00 -1.6184303006202565e+01 3.0398999999427274e+00 0 0 0
3099 1033 2 4.2380000000000001e-01 8.2211572734218148e+00 -1.8161603436275236e+01 2.6255867549832748e+00 0 1 0
1785 595 2 4.2380000000000001e-01 5.3571404171780976e+00 -1.5067582317264755e+01 4.0610657009849724e+00 0 0 0
2049 683 2 4.2380000000000001e-01 5.0011845154191521e+00 -1.9020398237452710e+01 3.3068423449527580e+00 0 0 0
2047 683 1 -8.4760000000000002e-01 4.1548396282683786e+00 -1.9458698893516107e+01 3.6094316094486123e+00 0 0 0
2048 683 2 4.2380000000000001e-01 3.5260844226939900e+00 -1.8763939629309025e+01 3.9586828889903538e+00 0 0 0
2361 787 2 4.2380000000000001e-01 8.7677157496901703e+00 -1.5007493746935772e+01 9.0938059248319958e-01 0 0 0
2597 866 2 4.2380000000000001e-01 1.0819444304776784e+01 -1.5897886579942652e+01 5.3039601512055645e+00 0 0 0
2596 866 1 -8.4760000000000002e-01 1.0104823871407906e+01 -1.5713970295477848e+01 4.6290583535191612e+00 0 0 0
2882 961 2 4.2380000000000001e-01 1.1166164948476085e+01 -1.5637315516126257e+01 3.3836855162208472e+00 0 0 0
2881 961 1 -8.4760000000000002e-01 1.1914137180449387e+01 -1.5782134780965089e+01 2.7359472043012736e+00 0 0 0
3219 1073 2 4.2380000000000001e-01 1.1076453521024245e+01 -1.5873751858106834e+01 1.2928078864589749e+00 0 0 0
2883 961 2 4.2380000000000001e-01 1.2349046896670124e+01 -1.6663449534827674e+01 2.9206232435184014e+00 0 0 0
3097 1033 1 -8.4760000000000002e-01 9.0883503393043412e+00 -1.8379492960094808e+01 2.1778084053559792e+00 0 1 0
3098 1033 2 4.2380000000000001e-01 9.4473058763751165e+00 -1.7560521973990205e+01 1.7301059971369903e+00 0 1 0
3218 1073 2 4.2380000000000001e-01 1.0354513879502964e+01 -1.6330199715655070e+01 -9.8970078390212768e-02 0 0 0
3217 1073 1 -8.4760000000000002e-01 1.0203573887271052e+01 -1.6106274915245347e+01 8.6387715897742734e-01 0 0 0
2929 977 1 -8.4760000000000002e-01 1.2980034345275174e+01 -1.8381664475079095e+01 3.5585782573032647e+00 0 0 0
2862 954 2 4.2380000000000001e-01 1.1648372387668827e+01 -1.9401302712929940e+01 3.9074959320697014e+00 0 1 0
2861 954 2 4.2380000000000001e-01 1.0036666498275537e+01 -1.9308457892955172e+01 3.6617900884297292e+00 0 1 0
2930 977 2 4.2380000000000001e-01 1.3380922115760457e+01 -1.8616681748990697e+01 4.4440475545905844e+00 0 0 0
3174 1058 2 4.2380000000000001e-01 1.2898677795708068e+01 -1.4417533113649830e+01 3.1685599594603788e+00 0 0 0
2860 954 1 -8.4760000000000002e-01 1.0763440327029890e+01 -1.9809494584220893e+01 4.1316432951264961e+00 0 1 0
2598 866 2 4.2380000000000001e-01 9.2229129651607593e+00 -1.6023362829182638e+01 4.9846941357881320e+00 0 0 0
2931 977 2 4.2380000000000001e-01 1.3709380975585578e+01 -1.8168284816254257e+01 2.9085859418451099e+00 0 0 0
3615 1205 4 -3.2560000000000000e-01 1.5571459493821720e+01 -1.7890194854094183e+01 2.5672621484133278e+00 -1 0 0
3613 1205 3 6.5120000000000000e-01 1.6609972477166853e+01 -1.7533250636157092e+01 2.9053192570575206e+00 -1 0 0
3614 1205 4 -3.2560000000000000e-01 1.7648485460511985e+01 -1.7176306418220001e+01 3.2433763657017138e+00 -1 0 0
3457 1153 3 6.5120000000000000e-01 3.3968307868774595e+01 -1.9909999286447061e+01 3.7300070189786090e+00 -1 0 0
3458 1153 4 -3.2560000000000000e-01 3.3854890878741308e+01 -1.9590934056138295e+01 2.6320384560498691e+00 -1 0 0
3782 1261 4 -3.2560000000000000e-01 3.7892745242054730e+01 -1.6648613536504897e+01 3.4185138565862472e+00 -1 1 0
3459 1153 4 -3.2560000000000000e-01 3.4081724858807888e+01 1.9770935483244173e+01 4.8279755819073493e+00 -1 -1 0
3781 1261 3 6.5120000000000000e-01 3.8762091692104832e+01 -1.5980034724665552e+01 3.7612092346478385e+00 -1 1 0
3783 1261 4 -3.2560000000000000e-01 3.9631438142154934e+01 -1.5311455912826208e+01 4.1039046127094299e+00 -1 1 0
4058 1353 4 -3.2560000000000000e-01 4.2847190259102696e+01 1.9264349002248920e+01 3.8784702867135921e+00 -1 -1 0
4057 1353 3 6.5120000000000000e-01 4.3761735602164237e+01 1.8592864316913104e+01 4.0598983243591382e+00 -1 -1 0
4059 1353 4 -3.2560000000000000e-01 4.4676280945225777e+01 1.7921379631577292e+01 4.2413263620046839e+00 -1 -1 0
3830 1277 4 -3.2560000000000000e-01 5.1724790910022506e+01 -1.9024921410333359e+01 6.2492905486290817e-01 -1 0 0
3829 1277 3 6.5120000000000000e-01 5.1097479628921150e+01 -1.8396939068492809e+01 1.3545315047898749e+00 -1 0 0
3831 1277 4 -3.2560000000000000e-01 5.0470168347819794e+01 -1.7768956726652263e+01 2.0841339547168416e+00 -1 0 0
4394 1465 4 -3.2560000000000000e-01 5.0228725424171138e+01 -1.2980675642196315e+01 1.1006286219163417e+00 -1 1 0
4393 1465 3 6.5120000000000000e-01 5.1169982632199549e+01 -1.3584028119717825e+01 1.3655845733558767e+00 -1 1 0
4395 1465 4 -3.2560000000000000e-01 5.2111239840227952e+01 -1.4187380597239333e+01 1.6305405247954119e+00 -1 1 0
4249 1417 3 6.5120000000000000e-01 4.9185443434747235e+01 -1.6398614209557977e+01 5.8898872640931828e+00 -1 0 0
4251 1417 4 -3.2560000000000000e-01 4.9735876714614243e+01 -1.7275825355281444e+01 6.3876068741482488e+00 -1 0 0
3999 1333 4 -3.2560000000000000e-01 5.3269521462390848e+01 -1.8984761534158533e+01 3.5550985391482186e+00 -1 0 0
4514 1505 4 -3.2560000000000000e-01 5.8706072453351531e+01 -1.6503847291852882e+01 3.9268555308175710e+00 -1 1 0
4513 1505 3 6.5120000000000000e-01 5.8981869460184221e+01 -1.6311415365958755e+01 2.8281713337350753e+00 -1 1 0
4311 1437 4 -3.2560000000000000e-01 5.6501000277040511e+01 -1.8870394952677703e+01 3.1977483906732616e+00 -1 0 0
4417 1473 3 6.5120000000000000e-01 -5.7909551352018489e+01 -1.4135033647347202e+01 3.8237024922981742e+00 0 0 0
4419 1473 4 -3.2560000000000000e-01 -5.7714433608465043e+01 -1.3079793234787731e+01 4.2343090410183963e+00 0 0 0
4360 1454 3 6.5120000000000000e-01 -5.7510211466074281e+01 -9.0800985994340575e+00 1.6663608981097999e+00 0 0 0
4361 1454 4 -3.2560000000000000e-01 -5.6389847550896540e+01 -9.3349161641642784e+00 1.6590324417536453e+00 0 0 0
4826 1609 4 -3.2560000000000000e-01 -5.4697936397089187e+01 -1.3916604884092973e+01 1.8806540822734910e+00 0 0 0
4825 1609 3 6.5120000000000000e-01 -5.4093181847937892e+01 -1.3150836849558162e+01 1.2739644972586301e+00 0 0 0
4362 1454 4 -3.2560000000000000e-01 -5.8630575381252022e+01 -8.8252810347038384e+00 1.6736893544659546e+00 0 0 0
4827 1609 4 -3.2560000000000000e-01 -5.3488427298786590e+01 -1.2385068815023352e+01 6.6727491224376934e-01 0 0 0
4839 1613 4 -3.2560000000000000e-01 -4.6915995101064887e+01 -1.4158075411913963e+01 8.1871137988284559e-01 0 0 0
4302 1434 4 -3.2560000000000000e-01 -5.0186916527741531e+01 -8.3489965368830710e+00 5.3729367741639011e+00 0 0 0
5067 1689 4 -3.2560000000000000e-01 -4.8899788458320849e+01 -1.1242774362490698e+01 3.9965187085837797e+00 0 0 0
5370 1790 4 -3.2560000000000000e-01 -4.3627170542504665e+01 -1.2393503776361941e+01 1.1477688127764312e+00 0 1 0
4661 1554 4 -3.2560000000000000e-01 -4.5448572756293771e+01 -9.9309997765123708e+00 3.8330302209227880e+00 0 0 0
5369 1790 4 -3.2560000000000000e-01 -4.3348814627766522e+01 -1.0129630043024836e+01 8.6813028854092944e-01 0 1 0
5368 1790 3 6.5120000000000000e-01 -4.3487992585135594e+01 -1.1261566909693389e+01 1.0079495506586802e+00 0 1 0
5047 1683 3 6.5120000000000000e-01 -4.0577319897667167e+01 -1.3409088611709347e+01 3.5783775125982573e+00 0 0 0
5048 1683 4 -3.2560000000000000e-01 -4.1404627306079178e+01 -1.2657017301610850e+01 3.3135149132880937e+00 0 0 0
5247 1749 4 -3.2560000000000000e-01 -3.9378400344674915e+01 -1.0537310039442287e+01 2.2646601438744285e+00 0 1 0
5245 1749 3 6.5120000000000000e-01 -3.9133135167777866e+01 -9.9290444328343010e+00 3.2080894972546790e+00 0 1 0
5246 1749 4 -3.2560000000000000e-01 -3.8887869990880816e+01 -9.3207788262263147e+00 4.1515188506349290e+00 0 1 0
5049 1683 4 -3.2560000000000000e-01 -3.9750012489255163e+01 -1.4161159921807844e+01 3.8432401119084210e+00 0 0 0
5173 1725 3 6.5120000000000000e-01 -3.2078819497966720e+01 -7.9758542028606421e+00 1.4411244761301147e+00 0 0 0
5174 1725 4 -3.2560000000000000e-01 -3.3004199379885065e+01 -7.3089284722783532e+00 1.3029827227458888e+00 0 0 0
386 129 2 4.2380000000000001e-01 -2.0565587130885479e+01 -1.0587012608803082e+01 1.0249480491796175e+00 0 0 0
385 129 1 -8.4760000000000002e-01 -2.0188445851627076e+01 -9.9481866052883205e+00 1.6955192927568321e+00 0 0 0
84 28 2 4.2380000000000001e-01 -1.9875014610538265e+01 -1.1921733995281727e+01 4.6471637119101405e+00 0 0 0
82 28 1 -8.4760000000000002e-01 -2.0062392785218634e+01 -1.1048954116319086e+01 4.1964496729326397e+00 0 0 0
49 17 1 -8.4760000000000002e-01 -1.3973456591838179e+01 -1.0000026686162009e+01 4.7353876515286260e+00 0 0 0
50 17 2 4.2380000000000001e-01 -1.4150114601215593e+01 -1.0905262614688418e+01 4.3489424918646176e+00 0 0 0
83 28 2 4.2380000000000001e-01 -1.9571354810342800e+01 -1.0317398147264511e+01 4.6694270205619528e+00 0 0 0
939 313 2 4.2380000000000001e-01 -1.4410976461553554e+01 -9.1257975270711000e+00 1.3183537726092431e+00 0 0 0
937 313 1 -8.4760000000000002e-01 -1.5273589961208772e+01 -9.5855051481330662e+00 1.1072330444698024e+00 0 0 0
387 129 2 4.2380000000000001e-01 -2.0165153652474991e+01 -1.0384419418435236e+01 2.5950544586578590e+00 0 0 0
938 313 2 4.2380000000000001e-01 -1.5252017718970500e+01 -1.0517363413697669e+01 1.4694136779439591e+00 0 0 0
410 137 2 4.2380000000000001e-01 -1.7532020666682300e+01 -1.4508725774375247e+01 3.6492105832002104e+00 0 0 0
411 137 2 4.2380000000000001e-01 -1.7535687431771965e+01 -1.2875805643542838e+01 3.6627571567907449e+00 0 0 0
409 137 1 -8.4760000000000002e-01 -1.7620115304099819e+01 -1.3687725141066352e+01 3.0851207898475312e+00 0 0 0
1201 401 1 -8.4760000000000002e-01 -1.5348095152980399e+01 -1.2514675781983078e+01 2.0659017375779629e+00 0 0 0
1202 401 2 4.2380000000000001e-01 -1.6248524551174707e+01 -1.2937285158252992e+01 2.1689949670171011e+00 0 0 0
1779 593 2 4.2380000000000001e-01 -1.1453659235112180e+01 -1.1332860569391789e+01 2.6888539054290383e+00 0 0 0
967 323 1 -8.4760000000000002e-01 -1.1321357361161242e+01 -1.0843131069796954e+01 8.9539458132878491e-01 0 0 0
968 323 2 4.2380000000000001e-01 -1.1296231736115862e+01 -9.8435259965657806e+00 9.0798030882389369e-01 0 0 0
969 323 2 4.2380000000000001e-01 -1.0471713737314859e+01 -1.1192960389193784e+01 5.0076783584954465e-01 0 0 0
1777 593 1 -8.4760000000000002e-01 -1.1584211245064720e+01 -1.1775924575324659e+01 3.5757687014743329e+00 0 0 0
618 206 2 4.2380000000000001e-01 -1.3001941799050835e+01 -1.2996131807101348e+01 3.8692120493151010e+00 0 0 0
2004 668 2 4.2380000000000001e-01 -1.2299511317989539e+01 -1.3240504729975546e+01 1.4544037614322045e+00 0 1 0
1203 401 2 4.2380000000000001e-01 -1.4879505963642554e+01 -1.2508881104934050e+01 2.9492804725798849e+00 0 0 0
1539 513 2 4.2380000000000001e-01 -1.0779762621801405e+01 -7.1934188377314205e+00 1.6002510962767853e+00 0 0 0
1537 513 1 -8.4760000000000002e-01 -1.0952566992823970e+01 -8.0898196554158179e+00 1.1920730323019533e+00 0 0 0
616 206 1 -8.4760000000000002e-01 -1.3920206822932190e+01 -1.2933307060540166e+01 4.2601124549630125e+00 0 0 0
1778 593 2 4.2380000000000001e-01 -1.0701481515866922e+01 -1.1864626376755286e+01 4.0372014870599946e+00 0 0 0
617 206 2 4.2380000000000001e-01 -1.3890169451175520e+01 -1.3193648486893711e+01 5.2251617272917130e+00 0 0 0
99 33 2 4.2380000000000001e-01 -1.1953945757032360e+01 -1.0902806180230431e+01 5.3643318676574419e+00 0 0 0
941 314 2 4.2380000000000001e-01 -1.3154124523656520e+01 -8.9519792458299534e+00 3.3193036541663958e+00 0 0 0
77 26 2 4.2380000000000001e-01 -9.6707000660700526e+00 -7.3387103576337838e+00 5.2487993962574215e+00 0 0 0
2409 803 2 4.2380000000000001e-01 -3.7216529577025534e+00 -1.2262593691060768e+01 1.1242718187024296e+00 0 0 0
2407 803 1 -8.4760000000000002e-01 -4.2490068922437807e+00 -1.3111435243038743e+01 1.1612982398029423e+00 0 0 0
1806 602 2 4.2380000000000001e-01 -8.8898753064163909e+00 -1.3308443292911525e+01 1.5621559576103814e+00 0 0 0
1804 602 1 -8.4760000000000002e-01 -8.7334026389803494e+00 -1.2331373895653673e+01 1.7065748129847169e+00 0 0 0
1805 602 2 4.2380000000000001e-01 -8.9909019457144659e+00 -1.2087192702120545e+01 2.6414917353666940e+00 0 0 0
922 308 1 -8.4760000000000002e-01 -8.9306813819382853e+00 -1.1702861561441235e+01 4.3048829823185120e+00 0 0 0
1538 513 2 4.2380000000000001e-01 -1.0082381581644446e+01 -8.5534640277900085e+00 1.0253059907857507e+00 0 0 0
2643 881 2 4.2380000000000001e-01 -7.8861352838495762e+00 -8.9239382093002799e+00 1.6803430763840668e+00 0 0 0
2641 881 1 -8.4760000000000002e-01 -8.4739589591102966e+00 -9.3055409644432050e+00 9.6703384458462838e-01 0 0 0
2642 881 2 4.2380000000000001e-01 -8.3493421719397460e+00 -1.0296955974770977e+01 9.2744933180408207e-01 0 0 0
2042 681 2 4.2380000000000001e-01 -3.5925831915687332e+00 -1.0026879547524267e+01 1.8075782261516637e+00 0 0 0
1331 444 2 4.2380000000000001e-01 -6.3314400876132728e+00 -9.3700124469602972e+00 2.7438305463785833e+00 0 0 0
1330 444 1 -8.4760000000000002e-01 -6.7240106658676808e+00 -8.4529757053037109e+00 2.8140584293088922e+00 0 0 0
2043 681 2 4.2380000000000001e-01 -4.2550273420530536e+00 -9.3104973163075542e+00 4.9816933570297117e-01 0 0 0
2041 681 1 -8.4760000000000002e-01 -4.1614936466518566e+00 -1.0171535795027859e+01 9.9800088941644305e-01 0 0 0
2310 770 2 4.2380000000000001e-01 -3.0963616233398827e+00 -7.0000663044925133e+00 -1.1572744458210849e-01 0 0 0
924 308 2 4.2380000000000001e-01 -8.7535331995936243e+00 -1.1077215242092688e+01 5.0645841963346507e+00 0 0 0
1758 586 2 4.2380000000000001e-01 -4.0019938571900102e+00 -1.3588880630631916e+01 4.0747966547558656e+00 0 0 0
1808 603 2 4.2380000000000001e-01 -3.7890112199805799e+00 -1.0642909136764814e+01 3.9917097948186386e+00 0 0 0
1807 603 1 -8.4760000000000002e-01 -2.9482806140178992e+00 -1.0213289501366743e+01 3.6621661450875997e+00 0 0 0
2907 969 2 4.2380000000000001e-01 -4.3208470235753405e-01 -1.2801033336636435e+01 2.3243909861458678e+00 0 0 0
2114 705 2 4.2380000000000001e-01 -7.2659660664229686e-01 -1.0687445405040119e+01 1.5669491155071831e+00 0 0 0
2115 705 2 4.2380000000000001e-01 -1.8562230112025198e+00 -1.1268599179910371e+01 2.5930239590611994e+00 0 0 0
2113 705 1 -8.4760000000000002e-01 -1.2387741567108823e+00 -1.1501229012168599e+01 1.8415950657316487e+00 0 0 0
2905 969 1 -8.4760000000000002e-01 -2.2993536881027460e-01 -1.3776068046644829e+01 2.4160989864798044e+00 0 0 0
2665 889 1 -8.4760000000000002e-01 3.6672426358155117e+00 -1.0221165245538021e+01 4.7479146146308011e+00 0 0 0
2358 786 2 4.2380000000000001e-01 3.6659320295855635e-01 -8.4238733556264798e+00 8.6439033838618162e-01 0 0 0
1809 603 2 4.2380000000000001e-01 -2.7544782515275652e+00 -9.3980759025553002e+00 4.2079431518459147e+00 0 0 0
2356 786 1 -8.4760000000000002e-01 -5.9543835244798206e-02 -9.1050470612878662e+00 1.4596860661440780e+00 0 0 0
2600 867 2 4.2380000000000001e-01 1.1115529021899302e+00 -1.3950272085402819e+01 1.4993284381332543e+00 0 0 0
2599 867 1 -8.4760000000000002e-01 1.9448029187308067e+00 -1.4254911127565132e+01 1.0379289757093615e+00 0 0 0
3362 1121 2 4.2380000000000001e-01 1.7490772102155356e+00 -1.0367508974185627e+01 1.9341417799314695e+00 0 0 0
1756 586 1 -8.4760000000000002e-01 -3.5850810534585844e+00 -1.3880539671709840e+01 4.9356602408961505e+00 0 0 0
1757 586 2 4.2380000000000001e-01 -2.6315679635758102e+00 -1.4135326932411665e+01 4.7747371561436349e+00 0 0 0
2019 673 2 4.2380000000000001e-01 4.8592918398177156e+00 -1.3797751841091710e+01 4.3762364857052255e-01 0 0 0
2403 801 2 4.2380000000000001e-01 3.6414338488548688e+00 -1.1509878189033696e+01 1.5842861583544501e+00 0 0 0
2666 889 2 4.2380000000000001e-01 3.8721462726260580e+00 -9.2838512486605502e+00 5.0297957436185232e+00 0 0 0
2667 889 2 4.2380000000000001e-01 3.4016115681362611e+00 -1.0228776857699405e+01 3.7838672570057268e+00 0 0 0
2402 801 2 4.2380000000000001e-01 3.5272098294415781e+00 -1.3073938762492341e+01 1.1289922923280278e+00 0 0 0
2401 801 1 -8.4760000000000002e-01 4.1482845066332690e+00 -1.2362627155184381e+01 1.4580850492525799e+00 0 0 0
3266 1089 2 4.2380000000000001e-01 6.1201862552564945e+00 -1.0206632466284086e+01 2.9463929449926733e+00 0 0 0
1783 595 1 -8.4760000000000002e-01 5.5588734437615726e+00 -1.4196731010501480e+01 4.5092723314515091e+00 0 0 0
1784 595 2 4.2380000000000001e-01 5.8366404550869087e+00 -1.3524921761265563e+01 3.8226007796449228e+00 0 0 0
3265 1089 1 -8.4760000000000002e-01 6.1229612683982531e+00 -1.1204786202059870e+01 3.0070676436644495e+00 0 0 0
2593 865 1 -8.4760000000000002e-01 8.3088218761786568e+00 -1.2917097462318331e+01 3.4951739790008474e+00 0 0 0
2595 865 2 4.2380000000000001e-01 7.5397237927684202e+00 -1.2281520016907923e+01 3.5622324988195828e+00 0 0 0
3361 1121 1 -8.4760000000000002e-01 2.6722219265065394e+00 -1.0068593607515078e+01 2.1759132347234122e+00 0 0 0
2594 865 2 4.2380000000000001e-01 9.0195362479117804e+00 -1.2650170903862531e+01 4.1460466963603437e+00 0 0 0
3267 1089 2 4.2380000000000001e-01 5.3935033489758739e+00 -1.1575677900921413e+01 2.4323193509244243e+00 0 0 0
3363 1121 2 4.2380000000000001e-01 2.8699610517851504e+00 -9.1987082893034611e+00 1.7240240005144924e+00 0 0 0
3028 1010 1 -8.4760000000000002e-01 5.1483351361416769e+00 -8.4004200660455499e+00 2.6090175320530382e+00 0 0 0
3030 1010 2 4.2380000000000001e-01 4.8731058760898964e+00 -7.9824448529230692e+00 3.4747791283268423e+00 0 0 0
3029 1010 2 4.2380000000000001e-01 4.5943396042334310e+00 -8.0242792459315737e+00 1.8663150114772129e+00 0 0 0
2977 993 1 -8.4760000000000002e-01 7.4284228652051540e+00 -8.5709616962412607e+00 4.1622009133126330e+00 0 0 0
2937 979 2 4.2380000000000001e-01 5.6003315303400845e+00 -1.0676698321497000e+01 6.0578195544049365e+00 0 0 0
2355 785 2 4.2380000000000001e-01 9.9870912182473344e+00 -1.3684941879254758e+01 5.4078962907098260e+00 0 0 0
3172 1058 1 -8.4760000000000002e-01 1.3314678508081663e+01 -1.3712762995539054e+01 3.7431988756701844e+00 0 0 0
3173 1058 2 4.2380000000000001e-01 1.2605105539802242e+01 -1.3090410072818248e+01 4.0736274492954152e+00 0 0 0
3253 1085 1 -8.4760000000000002e-01 8.8105830890418204e+00 -1.1696380479188957e+01 1.0739245968672522e+00 0 0 0
2353 785 1 -8.4760000000000002e-01 1.0527680488222456e+01 -1.2851199917714199e+01 5.5201681877021809e+00 0 0 0
3255 1085 2 4.2380000000000001e-01 8.6007180994313330e+00 -1.2651393778524076e+01 8.6439004928895080e-01 0 0 0
3002 1001 2 4.2380000000000001e-01 1.0582457525443754e+01 -9.6791483610819569e+00 2.1317771601931872e+00 0 0 0
3254 1085 2 4.2380000000000001e-01 8.1003186329112538e+00 -1.1322105942184592e+01 1.6701149803084143e+00 0 0 0
2378 793 2 4.2380000000000001e-01 1.1003721278397220e+01 -1.1857330397159160e+01 3.9152130729616732e+00 0 0 0
2377 793 1 -8.4760000000000002e-01 1.0837576924234430e+01 -1.1320850438920107e+01 3.0878163676336587e+00 0 0 0
2379 793 2 4.2380000000000001e-01 1.0115688402209218e+01 -1.1754655931786345e+01 2.5486551073159891e+00 0 0 0
3594 1198 4 -3.2560000000000000e-01 1.4895631252497830e+01 -1.1170005294706645e+01 1.0851501219654232e+00 -1 0 0
3592 1198 3 6.5120000000000000e-01 1.5773642524933527e+01 -1.1519644057194277e+01 1.7386407043321208e+00 -1 0 0
3593 1198 4 -3.2560000000000000e-01 1.6651653797369224e+01 -1.1869282819681910e+01 2.3921312866988180e+00 -1 0 0
2620 874 1 -8.4760000000000002e-01 1.4943699041903500e+01 -1.3527437047842005e+01 6.0546065948990382e+00 0 0 0
2622 874 2 4.2380000000000001e-01 1.4326246876602465e+01 -1.3688994120037851e+01 5.2847887384624839e+00 0 0 0
2621 874 2 4.2380000000000001e-01 1.4490441904818590e+01 -1.2944249084323927e+01 6.7287354897620508e+00 0 0 0
3470 1157 4 -3.2560000000000000e-01 1.7693539427002186e+01 -1.4413770207480676e+01 2.9685079263158309e+00 -1 0 0
3717 1239 4 -3.2560000000000000e-01 3.1961771997450224e+01 -1.4166721063511023e+01 1.0159218409114663e+00 -1 0 0
3859 1287 3 6.5120000000000000e-01 3.7191339538099157e+01 -1.2352770456730605e+01 3.1741678414676624e+00 -1 0 0
3860 1287 4 -3.2560000000000000e-01 3.7590279135721751e+01 -1.3404079741889207e+01 2.9379539883852726e+00 -1 0 0
3582 1194 4 -3.2560000000000000e-01 3.4628103536412297e+01 -1.0359373117655259e+01 6.4253847160938449e-01 -1 0 0
3715 1239 3 6.5120000000000000e-01 3.2687236832889617e+01 -1.4013444668015328e+01 1.8936507962984568e+00 -1 0 0
3716 1239 4 -3.2560000000000000e-01 3.3412701668329014e+01 -1.3860168272519633e+01 2.7713797516854477e+00 -1 0 0