LAMMPS data file via write_data, version 17 Nov 2016, timestep = 500000

3456 atoms
2 atom types
2304 bonds
1 bond types
1152 angles
1 angle types

 
-6.0000000000000000e+01 6.0000000000000000e+01 xlo xhi
-2.0000000000000000e+01 2.0000000000000000e+01 ylo yhi
-0.75000000000000e+01 3.0000000000000000e+01 zlo zhi

Bond Coeffs

1 1000 1.0

Angle Coeffs

1 1000 109.47

Masses

1 15.9994
2 1.008

Atoms

69 23 2 0.4238 -20.7132 -16.3426 3.37241 0 -1 0
67 23 1 -0.8476 -20.3111 -15.6165 3.93019 0 -1 0
3335 1112 2 0.4238 -19.0144 -14.1179 3.69369 0 -9 0
1186 396 1 -0.8476 -21.1234 -18.5538 3.58368 0 -6 0
1187 396 2 0.4238 -21.9327 -18.2783 4.10248 0 -6 0
923 308 2 0.4238 -21.7105 -14.2328 4.05335 0 -1 0
922 308 1 -0.8476 -22.6055 -13.8002 3.94481 0 -1 0
924 308 2 0.4238 -22.4855 -12.8187 3.79581 0 -1 0
68 23 2 0.4238 -19.8612 -16.019 4.72743 0 -1 0
3336 1112 2 0.4238 -17.8005 -13.6652 2.69973 0 -9 0
1188 396 2 0.4238 -20.8901 -19.5001 3.80775 0 -6 0
1605 535 2 0.4238 -17.834 -17.3237 1.85373 1 2 0
1603 535 1 -0.8476 -17.08 -16.7498 1.53391 1 2 0
1604 535 2 0.4238 -17.4092 -15.8166 1.39005 1 2 0
398 133 2 0.4238 -15.3036 -18.2006 5.55295 0 1 0
762 254 2 0.4238 -19.3616 -18.606 1.03046 0 8 0
761 254 2 0.4238 -19.6799 -18.6086 2.63212 0 8 0
760 254 1 -0.8476 -18.9809 -18.433 1.93885 0 8 0
3317 1106 2 0.4238 -16.5952 -19.987 4.3194 0 2 0
3318 1106 2 0.4238 -17.6832 -19.5771 3.17273 0 2 0
2995 999 1 -0.8476 -19.2215 -16.2265 6.54242 0 -8 0
2046 682 2 0.4238 -12.8378 -17.4995 1.81507 0 0 0
2044 682 1 -0.8476 -12.0746 -18.1077 1.59659 0 0 0
2598 866 2 0.4238 -13.2014 -13.0933 4.33847 0 -5 0
2045 682 2 0.4238 -12.4287 -18.9695 1.23337 0 0 0
2597 866 2 0.4238 -13.144 -14.5644 3.63187 0 -5 0
2906 969 2 0.4238 -15.3431 -16.6012 1.57748 0 -6 0
2907 969 2 0.4238 -14.5931 -17.2153 2.89168 0 -6 0
2596 866 1 -0.8476 -13.3636 -14.0708 4.47338 0 -5 0
849 283 2 0.4238 -10.8486 -16.9563 1.36324 -1 1 0
847 283 1 -0.8476 -10.5358 -16.0286 1.15929 -1 1 0
848 283 2 0.4238 -11.3233 -15.4141 1.11202 -1 1 0
907 303 1 -0.8476 -7.46728 -17.7554 3.23143 0 -1 0
908 303 2 0.4238 -7.5878 -17.0796 2.50423 0 -1 0
2905 969 1 -0.8476 -14.4856 -16.6253 2.09143 0 -6 0
861 287 2 0.4238 -8.67049 -16.013 0.869772 0 -2 0
2348 783 2 0.4238 -10.8198 -13.7494 1.56522 0 -4 0
176 59 2 0.4238 -12.2894 -17.3712 4.41056 0 1 0
175 59 1 -0.8476 -11.9435 -18.1717 4.90002 0 1 0
909 303 2 0.4238 -6.49612 -17.8327 3.45698 0 -1 0
2550 850 2 0.4238 -5.14114 -17.2197 0.103667 0 -3 0
2548 850 1 -0.8476 -5.1609 -16.7304 0.97561 0 -3 0
1527 509 2 0.4238 -3.51979 -15.072 0.560935 0 -2 0
859 287 1 -0.8476 -7.70504 -16.1403 1.09716 0 -2 0
2549 850 2 0.4238 -6.10991 -16.5937 1.25963 0 -3 0
860 287 2 0.4238 -7.36825 -15.3344 1.58417 0 -2 0
194 65 2 0.4238 -4.39212 -15.7463 4.00683 0 -4 0
2106 702 2 0.4238 -5.05911 -19.6474 4.37921 0 -1 0
195 65 2 0.4238 -4.26725 -17.155 4.82322 0 -4 0
2104 702 1 -0.8476 -4.888 -18.7074 4.08391 0 -1 0
2105 702 2 0.4238 -4.04143 -18.6738 3.5527 0 -1 0
193 65 1 -0.8476 -3.89224 -16.2334 4.72294 0 -4 0
661 221 1 -0.8476 -6.48313 -13.8855 2.33544 0 -1 0
89 30 2 0.4238 -3.27573 -12.9381 1.43292 0 -4 0
662 221 2 0.4238 -6.01702 -13.7509 3.20987 0 -1 0
1525 509 1 -0.8476 -2.57146 -14.9077 0.832493 0 -2 0
1526 509 2 0.4238 -2.14278 -15.7745 1.08717 0 -2 0
2885 962 2 0.4238 0.210643 -13.1924 2.35737 0 -2 0
2884 962 1 -0.8476 -0.78399 -13.0956 2.39384 0 -2 0
3001 1001 1 -0.8476 -0.500501 -16.7175 1.50541 0 0 0
3003 1001 2 0.4238 -0.606367 -16.5049 2.47684 0 0 0
3002 1001 2 0.4238 0.443063 -16.9959 1.32605 0 0 0
2886 962 2 0.4238 -1.20741 -13.7784 1.79855 0 -2 0
1064 355 2 0.4238 -2.19264 -16.5149 4.50882 0 -1 0
1063 355 1 -0.8476 -1.20813 -16.4386 4.35095 0 -1 0
1065 355 2 0.4238 -0.872077 -15.5846 4.74813 0 -1 0
365 122 2 0.4238 -0.368465 19.9542 5.12009 0 2 0
209 70 2 0.4238 -2.54245 -18.0302 2.14609 0 -3 0
2426 809 2 0.4238 3.14286 -17.451 1.37779 0 1 0
2425 809 1 -0.8476 2.20424 -17.7312 1.57904 0 1 0
2427 809 2 0.4238 2.21631 -18.519 2.19489 0 1 0
3289 1097 1 -0.8476 2.78052 -14.9482 3.89888 0 -8 0
2737 913 1 -0.8476 2.22148 -19.7685 3.45793 0 -1 0
2738 913 2 0.4238 1.53444 -19.4233 4.09731 0 -1 0
2739 913 2 0.4238 2.96442 19.7987 3.96859 0 -2 0
251 84 2 0.4238 -24.5642 -10.58 3.41692 0 0 0
1305 435 2 0.4238 -23.5134 -8.58854 3.13151 0 3 0
250 84 1 -0.8476 -24.2279 -11.1401 2.65977 0 0 0
252 84 2 0.4238 -24.9921 -11.6353 2.24649 0 0 0
2171 724 2 0.4238 -20.3352 -8.65133 4.79895 0 -4 0
2170 724 1 -0.8476 -21.2388 -8.77242 5.20987 0 -4 0
3334 1112 1 -0.8476 -18.2471 -13.4874 3.5766 0 -9 0
416 139 2 0.4238 -17.8989 -12.0164 4.08617 0 -4 0
305 102 2 0.4238 -16.7434 -13.5041 1.08511 1 3 0
715 239 1 -0.8476 -18.4386 -7.66139 1.09276 0 2 0
741 247 2 0.4238 -15.9946 -11.6712 2.71424 0 -3 0
739 247 1 -0.8476 -15.5558 -12.0622 1.90521 0 -3 0
740 247 2 0.4238 -14.5889 -11.8071 1.89446 0 -3 0
304 102 1 -0.8476 -17.6267 -13.9678 1.01635 1 3 0
306 102 2 0.4238 -18.1064 -13.6513 0.197977 1 3 0
417 139 2 0.4238 -17.5949 -11.0165 5.34094 0 -4 0
717 239 2 0.4238 -19.1761 -7.75742 0.424223 0 2 0
1380 460 2 0.4238 -16.7077 -8.42255 1.0319 0 0 0
415 139 1 -0.8476 -17.6582 -11.0809 4.34502 0 -4 0
2272 758 1 -0.8476 -13.072 -14.513 1.82284 0 -10 0
1378 460 1 -0.8476 -15.9536 -9.06804 1.15288 0 0 0
254 85 2 0.4238 -18.4095 -9.54074 3.96382 0 0 0
1379 460 2 0.4238 -16.3214 -9.98088 1.33021 0 0 0
2273 758 2 0.4238 -13.6947 -13.8047 1.49039 0 -10 0
2274 758 2 0.4238 -13.5356 -15.3989 1.80612 0 -10 0
2887 963 1 -0.8476 -12.8736 -11.5871 1.49144 0 -1 0
2889 963 2 0.4238 -12.5405 -10.6596 1.32175 0 -1 0
2888 963 2 0.4238 -12.0992 -12.189 1.68619 0 -1 0
2349 783 2 0.4238 -9.74235 -12.8413 2.39056 0 -4 0
2347 783 1 -0.8476 -10.3793 -12.8533 1.61973 0 -4 0
1748 583 2 0.4238 -8.81004 -11.6659 1.23525 0 4 0
1814 605 2 0.4238 -8.61923 -12.2147 4.47738 0 2 0
1813 605 1 -0.8476 -9.27951 -12.9445 4.30043 0 2 0
1747 583 1 -0.8476 -8.3047 -10.8196 1.06709 0 4 0
1749 583 2 0.4238 -8.9148 -10.0369 1.19061 0 4 0
2774 925 2 0.4238 -10.8792 -11.9159 4.78832 0 6 0
3088 1030 1 -0.8476 -9.21062 -8.1301 1.52115 0 -2 0
2773 925 1 -0.8476 -11.633 -11.6053 5.36733 0 6 0
3257 1086 2 0.4238 -12.5903 -10.1065 5.51466 0 -1 0
663 221 2 0.4238 -6.15261 -13.2119 1.67436 0 -1 0
642 214 2 0.4238 -5.04525 -11.0233 0.863416 0 -5 0
641 214 2 0.4238 -6.60158 -10.5448 0.739061 0 -5 0
640 214 1 -0.8476 -5.67062 -10.248 0.951819 0 -5 0
653 218 2 0.4238 -4.71885 -10.8664 4.05013 0 -6 0
90 30 2 0.4238 -4.14106 -12.0344 2.48226 0 -4 0
1152 384 2 0.4238 -5.57015 -9.47207 2.68735 0 1 0
1150 384 1 -0.8476 -5.75222 -9.48804 3.6705 0 1 0
442 148 1 -0.8476 -6.2239 -13.468 5.05887 0 -5 0
652 218 1 -0.8476 -4.32577 -11.7737 4.1997 0 -6 0
88 30 1 -0.8476 -4.1103 -12.4003 1.55208 0 -4 0
654 218 2 0.4238 -5.05508 -12.4201 4.42386 0 -6 0
3399 1133 2 0.4238 -6.40223 -8.76885 0.837214 0 -1 0
1151 384 2 0.4238 -5.49407 -8.60913 4.07161 0 1 0
1196 399 2 0.4238 -3.19774 -8.54864 1.93705 0 -4 0
1195 399 1 -0.8476 -3.36151 -8.09792 1.05954 0 -4 0
1197 399 2 0.4238 -4.3348 -7.88657 0.969891 0 -4 0
2718 906 2 0.4238 -2.00503 -8.71008 4.13116 0 -2 0
3397 1133 1 -0.8476 -6.6661 -7.81531 0.982562 0 -1 0
3398 1133 2 0.4238 -7.60331 -7.77795 1.3293 0 -1 0
903 301 2 0.4238 1.5225 -12.7875 1.40765 0 -4 0
901 301 1 -0.8476 1.90428 -13.6699 1.68258 0 -4 0
902 301 2 0.4238 1.56598 -14.3847 1.07056 0 -4 0
2944 982 1 -0.8476 -1.69409 -11.7204 4.45274 0 -3 0
2946 982 2 0.4238 -1.31123 -12.3372 3.76498 0 -3 0
1076 359 2 0.4238 -1.3734 -9.16699 0.586043 0 -1 0
1075 359 1 -0.8476 -0.875269 -9.59165 1.34202 0 -1 0
1077 359 2 0.4238 -1.41832 -9.5236 2.17898 0 -1 0
2716 906 1 -0.8476 -2.59695 -9.26186 3.54364 0 -2 0
2617 873 1 -0.8476 1.29445 -11.0428 1.06063 0 1 0
2619 873 2 0.4238 0.45054 -10.5065 1.076 0 1 0
2100 700 2 0.4238 -1.76132 -6.05758 3.65847 0 -9 0
2717 906 2 0.4238 -2.62367 -10.2012 3.88548 0 -2 0
3290 1097 2 0.4238 2.66135 -14.6057 2.96696 0 -8 0
960 320 2 0.4238 2.64069 -11.0788 2.59165 0 -3 0
958 320 1 -0.8476 2.73652 -10.9931 3.58334 0 -3 0
372 124 2 0.4238 5.33516 -12.1169 6.53753 0 0 0
2818 940 1 -0.8476 5.14649 -9.43075 2.23973 0 -1 0
2618 873 2 0.4238 1.9799 -10.5698 0.507061 0 1 0
2313 771 2 0.4238 6.50798 -8.53478 1.47111 0 4 0
2819 940 2 0.4238 4.98546 -9.37578 3.22516 0 -1 0
2820 940 2 0.4238 4.27117 -9.51118 1.76295 0 -1 0
2823 941 2 0.4238 4.97465 -9.73782 5.10385 0 8 0
478 160 1 -0.8476 3.06659 -8.37267 0.732504 0 2 0
2312 771 2 0.4238 7.37181 -7.72084 0.349537 0 4 0
2311 771 1 -0.8476 7.25365 -7.88378 1.32905 0 4 0
230 77 2 0.4238 8.18679 -7.89654 2.82291 0 2 0
229 77 1 -0.8476 8.6257 -8.31688 3.61705 0 2 0
231 77 2 0.4238 9.55292 -8.60153 3.37365 0 2 0
972 324 2 0.4238 -23.2343 -6.06 4.22512 0 0 0
1303 435 1 -0.8476 -23.1767 -7.78735 3.62618 0 3 0
1304 435 2 0.4238 -22.3399 -8.02697 4.11849 0 3 0
2651 884 2 0.4238 -20.3578 -4.25466 0.998034 0 4 0
669 223 2 0.4238 -23.9505 -3.23885 4.03193 0 -8 0
667 223 1 -0.8476 -23.3166 -2.4656 4.04623 0 -8 0
716 239 2 0.4238 -18.7755 -7.91532 1.99942 0 2 0
255 85 2 0.4238 -18.29 -7.92031 4.1268 0 0 0
253 85 1 -0.8476 -18.751 -8.6598 3.63625 0 0 0
3102 1034 2 0.4238 -15.1542 -8.52919 2.94123 0 1 0
499 167 1 -0.8476 -16.9635 -5.31236 0.861692 0 2 0
501 167 2 0.4238 -17.2494 -6.25947 0.715899 0 2 0
500 167 2 0.4238 -17.7238 -4.69832 0.649892 0 2 0
840 280 2 0.4238 -15.6247 -4.77387 1.68373 0 5 0
838 280 1 -0.8476 -14.9249 -4.4146 2.30111 0 5 0
839 280 2 0.4238 -15.3565 -3.83776 2.99461 0 5 0
2650 884 1 -0.8476 -19.3994 -3.97125 0.964505 0 4 0
2652 884 2 0.4238 -19.3173 -3.03289 1.30027 0 4 0
1752 584 2 0.4238 -17.7557 -5.15806 3.01073 0 -5 0
1640 547 2 0.4238 -15.8152 -3.29765 4.73152 0 -9 0
1750 584 1 -0.8476 -17.6284 -5.77345 3.78861 0 -5 0
1751 584 2 0.4238 -16.6542 -5.96646 3.90497 0 -5 0
1078 360 1 -0.8476 -19.1663 -2.19538 4.34619 0 -2 0
681 227 2 0.4238 -13.4788 -8.40364 0.602379 0 -8 0
679 227 1 -0.8476 -12.7722 -8.73198 1.22921 0 -8 0
1758 586 2 0.4238 -10.0368 -7.77586 4.66328 0 -11 0
1756 586 1 -0.8476 -10.5061 -8.39732 4.03591 0 -11 0
1757 586 2 0.4238 -11.2525 -8.85642 4.5177 0 -11 0
3100 1034 1 -0.8476 -14.2979 -8.68994 3.43198 0 1 0
3101 1034 2 0.4238 -13.5368 -8.68983 2.78327 0 1 0
591 197 2 0.4238 -13.6272 -3.15889 2.1172 -1 5 0
2761 921 1 -0.8476 -14.671 -6.23372 4.31987 0 -7 0
2762 921 2 0.4238 -14.513 -7.17341 4.0165 0 -7 0
2763 921 2 0.4238 -14.4368 -5.60127 3.58151 0 -7 0
680 227 2 0.4238 -12.0828 -8.01902 1.3573 0 -8 0
2899 967 1 -0.8476 -11.4013 -6.41763 1.6299 0 -4 0
2901 967 2 0.4238 -11.2168 -5.51501 1.24104 0 -4 0
2900 967 2 0.4238 -11.1871 -6.40987 2.60668 0 -4 0
2924 975 2 0.4238 -11.4591 -2.90421 4.67803 0 3 0
368 123 2 0.4238 -9.53658 -3.56569 1.2189 0 -2 0
367 123 1 -0.8476 -10.3847 -3.74138 1.71871 0 -2 0
369 123 2 0.4238 -10.3117 -3.36417 2.64198 0 -2 0
3089 1030 2 0.4238 -9.71204 -7.51008 0.917724 0 -2 0
3090 1030 2 0.4238 -9.79861 -8.40166 2.28309 0 -2 0
3240 1080 2 0.4238 -7.20818 -4.04192 4.44862 0 2 0
3256 1086 1 -0.8476 -12.6975 -9.11243 5.49515 0 -1 0
3258 1086 2 0.4238 -13.4155 -8.86734 4.84368 0 -1 0
613 205 1 -0.8476 -7.67422 -3.3567 1.04568 0 -6 0
615 205 2 0.4238 -6.98151 -4.04522 0.830973 0 -6 0
438 146 2 0.4238 -5.86394 -6.33156 1.03179 0 -1 0
436 146 1 -0.8476 -5.3777 -5.51111 1.33247 0 -1 0
437 146 2 0.4238 -5.7072 -5.24117 2.23724 0 -1 0
453 151 2 0.4238 -2.55731 -5.33157 0.198964 0 -8 0
257 86 2 0.4238 -3.90167 -2.06813 0.472454 0 -3 0
3238 1080 1 -0.8476 -7.20557 -4.78045 3.77441 0 2 0
3239 1080 2 0.4238 -7.46576 -4.41631 2.88015 0 2 0
451 151 1 -0.8476 -2.82721 -4.87339 1.04586 0 -8 0
452 151 2 0.4238 -3.75598 -5.1497 1.29291 0 -8 0
614 205 2 0.4238 -7.25423 -2.44918 1.04285 0 -6 0
1467 489 2 0.4238 -3.5428 -3.33116 2.91154 0 3 0
1465 489 1 -0.8476 -3.93809 -3.44393 3.82315 0 3 0
3203 1068 2 0.4238 -2.89888 -6.69512 4.9929 0 6 0
3202 1068 1 -0.8476 -3.58874 -5.9911 4.82426 0 6 0
1466 489 2 0.4238 -3.65386 -4.32417 4.20314 0 3 0
3123 1041 2 0.4238 0.189811 -6.94446 2.32943 0 0 0
3122 1041 2 0.4238 1.61082 -6.71534 3.10071 0 0 0
3121 1041 1 -0.8476 1.18418 -6.93643 2.22371 0 0 0
256 86 1 -0.8476 -3.35488 -1.79178 1.26279 0 -3 0
258 86 2 0.4238 -2.38324 -1.8701 1.0397 0 -3 0
2098 700 1 -0.8476 -1.34851 -6.32173 2.78679 0 -9 0
2099 700 2 0.4238 -1.9283 -6.00813 2.0348 0 -9 0
1249 417 1 -0.8476 -0.57464 -3.24655 1.46441 0 -1 0
1251 417 2 0.4238 0.304354 -3.72334 1.45794 0 -1 0
1250 417 2 0.4238 -1.31567 -3.91245 1.37807 0 -1 0
102 34 2 0.4238 2.42509 -3.90748 0.160376 0 1 0
100 34 1 -0.8476 2.03354 -4.11343 1.05719 0 1 0
1462 488 1 -0.8476 -1.22762 -7.31021 5.52141 0 3 0
891 297 2 0.4238 0.222097 -3.04547 3.87042 0 -10 0
917 306 2 0.4238 3.19719 -6.45667 4.47445 0 4 0
889 297 1 -0.8476 1.0851 -3.54688 3.93227 0 -10 0
890 297 2 0.4238 1.65873 -3.32146 3.14478 0 -10 0
101 34 2 0.4238 2.31015 -5.03229 1.33861 0 1 0
2852 951 2 0.4238 -2.31009 -2.5671 4.81491 0 3 0
1463 488 2 0.4238 -0.353476 -7.62124 5.14842 0 3 0
480 160 2 0.4238 2.15457 -8.07487 1.01433 0 2 0
479 160 2 0.4238 3.6664 -7.5768 0.649764 0 2 0
918 306 2 0.4238 4.39661 -7.07019 3.55162 0 4 0
916 306 1 -0.8476 3.89067 -6.24042 3.78719 0 4 0
2007 669 2 0.4238 5.51814 -5.44567 1.0409 0 1 0
2005 669 1 -0.8476 4.64607 -5.93049 1.10751 0 1 0
2006 669 2 0.4238 4.30268 -5.87153 2.04486 0 1 0
2117 706 2 0.4238 -20.8778 -0.917724 1.80238 0 -1 0
2724 908 2 0.4238 -23.3858 -0.00223821 1.88567 0 -1 0
2722 908 1 -0.8476 -22.6256 -0.444004 2.36194 0 -1 0
2723 908 2 0.4238 -22.9809 -1.15183 2.97246 0 -1 0
283 95 1 -0.8476 -20.8164 1.17295 4.19339 0 1 0
285 95 2 0.4238 -21.3269 0.47265 3.69442 0 1 0
284 95 2 0.4238 -21.3238 1.43357 5.01474 0 1 0
1079 360 2 0.4238 -19.4755 -1.83913 3.46444 0 -2 0
1639 547 1 -0.8476 -16.17 -2.88633 3.8919 0 -9 0
1295 432 2 0.4238 -15.7746 -1.20585 2.72745 0 3 0
1641 547 2 0.4238 -17.1486 -2.70868 3.99547 0 -9 0
2116 706 1 -0.8476 -20.0404 -1.45382 1.90891 0 -1 0
2118 706 2 0.4238 -19.2849 -0.986768 1.44949 0 -1 0
1294 432 1 -0.8476 -15.1561 -0.520758 2.34258 0 3 0
3427 1143 1 -0.8476 -18.2248 2.16298 3.35397 0 0 0
2377 793 1 -0.8476 -17.5517 -0.124738 0.692922 0 -6 0
2379 793 2 0.4238 -16.6568 0.154802 1.04061 0 -6 0
2801 934 2 0.4238 -14.1982 0.57607 3.47024 1 -1 0
2378 793 2 0.4238 -17.8667 0.537492 0.012833 0 -6 0
3429 1143 2 0.4238 -17.5923 1.4017 3.49688 0 0 0
3428 1143 2 0.4238 -19.1244 1.92176 3.71801 0 0 0
2802 934 2 0.4238 -14.2101 1.91381 4.40669 1 -1 0
3044 1015 2 0.4238 -14.0678 -0.508 5.75374 0 3 0
590 197 2 0.4238 -12.0806 -3.00859 1.61496 -1 5 0
2925 975 2 0.4238 -10.9527 -1.44186 4.15685 0 3 0
589 197 1 -0.8476 -12.9396 -2.52078 1.77075 -1 5 0
2923 975 1 -0.8476 -10.7456 -2.42008 4.17163 0 3 0
1296 432 2 0.4238 -14.4446 -0.976868 1.80811 0 3 0
2800 934 1 -0.8476 -13.9477 0.949821 4.36331 1 -1 0
1405 469 1 -0.8476 -11.2885 0.413689 3.84642 0 -10 0
423 141 2 0.4238 -11.6233 -0.0494116 2.34867 0 1 0
1406 469 2 0.4238 -12.1293 0.863379 4.14759 0 -10 0
1172 391 2 0.4238 -12.6945 2.92721 0.680153 0 -7 0
1171 391 1 -0.8476 -11.8081 2.46549 0.713509 0 -7 0
1173 391 2 0.4238 -11.9487 1.48157 0.823458 0 -7 0
421 141 1 -0.8476 -11.7741 -0.364295 1.41158 0 1 0
422 141 2 0.4238 -12.2251 -1.25665 1.42836 0 1 0
2544 848 2 0.4238 -9.8591 -0.105616 0.758781 0 -8 0
1767 589 2 0.4238 -8.96386 3.89358 5.2461 0 -2 0
2543 848 2 0.4238 -9.23462 1.39511 0.915189 0 -8 0
1765 589 1 -0.8476 -8.58252 4.57001 4.616 0 -2 0
1766 589 2 0.4238 -7.96941 4.11532 3.96997 0 -2 0
1407 469 2 0.4238 -10.498 0.911799 4.20291 0 -10 0
660 220 2 0.4238 -8.22014 0.0884078 3.21139 0 0 0
2542 848 1 -0.8476 -9.03717 0.417262 0.984702 0 -8 0
658 220 1 -0.8476 -7.55348 0.423407 3.87723 0 0 0
900 300 2 0.4238 -3.87935 -0.213204 1.76771 0 -8 0
1347 449 2 0.4238 -6.03859 -0.208292 1.4324 0 -4 0
1345 449 1 -0.8476 -6.63385 -0.883467 0.996764 0 -4 0
1346 449 2 0.4238 -7.4771 -0.438809 0.694722 0 -4 0
218 73 2 0.4238 -4.30306 3.75242 1.01823 0 -8 0
899 300 2 0.4238 -3.96984 1.33845 2.26853 0 -8 0
898 300 1 -0.8476 -4.4587 0.467681 2.21574 0 -8 0
659 220 2 0.4238 -6.76286 -0.188666 3.89419 0 0 0
703 235 1 -0.8476 -5.18066 -1.04808 4.30469 0 0 0
705 235 2 0.4238 -4.75947 -0.476843 3.60022 0 0 0
2208 736 2 0.4238 -7.86978 3.07808 1.9669 0 -9 0
2206 736 1 -0.8476 -7.20317 3.12968 2.7105 0 -9 0
460 154 1 -0.8476 0.16578 -0.6982 1.70485 0 -6 0
462 154 2 0.4238 0.125541 -1.64125 1.37467 0 -6 0
461 154 2 0.4238 -0.295621 -0.634927 2.58981 0 -6 0
1760 587 2 0.4238 -2.88909 3.25926 3.59187 0 -9 0
1759 587 1 -0.8476 -2.67876 2.31217 3.34943 0 -9 0
1761 587 2 0.4238 -1.92104 2.29551 2.69707 0 -9 0
2833 945 1 -0.8476 -0.5239 2.04033 1.55623 0 -4 0
2834 945 2 0.4238 -0.471262 1.05689 1.38285 0 -4 0
2835 945 2 0.4238 0.159817 2.51377 1.00093 0 -4 0
1592 531 2 0.4238 -1.6814 0.898574 4.28151 0 -1 0
595 199 1 -0.8476 2.63321 2.11411 1.14728 0 -1 0
664 222 1 -0.8476 3.66663 -1.59947 5.36175 0 -7 0
596 199 2 0.4238 2.75823 1.32383 0.547433 0 -1 0
666 222 2 0.4238 3.62629 -2.58932 5.498 0 -7 0
597 199 2 0.4238 2.86558 1.86001 2.08614 0 -1 0
951 317 2 0.4238 3.20541 0.126066 3.96371 0 -11 0
950 317 2 0.4238 4.06141 -0.346492 2.65582 0 -11 0
949 317 1 -0.8476 3.78243 0.438419 3.20906 0 -11 0
931 311 1 -0.8476 5.13188 2.10094 4.77546 0 0 0
932 311 2 0.4238 5.18686 3.0172 4.37868 0 0 0
2803 935 1 -0.8476 -22.1428 6.20609 2.70176 0 4 0
2805 935 2 0.4238 -21.5027 6.76867 2.17853 0 4 0
2804 935 2 0.4238 -22.2003 5.29645 2.29037 0 4 0
2470 824 1 -0.8476 -23.8274 7.00116 4.43718 0 -5 0
2472 824 2 0.4238 -23.0718 6.8215 3.8072 0 -5 0
1568 523 2 0.4238 -19.9808 5.2063 5.3399 0 -5 0
870 290 2 0.4238 -17.5239 2.69092 1.72479 0 -4 0
1469 490 2 0.4238 -14.7195 5.19904 1.00666 0 5 0
1468 490 1 -0.8476 -14.408 4.24884 1.00065 0 5 0
3340 1114 1 -0.8476 -14.5527 3.59316 3.89867 0 -1 0
3341 1114 2 0.4238 -14.5049 3.45497 2.90942 0 -1 0
3342 1114 2 0.4238 -15.1806 4.34492 4.10027 0 -1 0
1470 490 2 0.4238 -15.1753 3.64509 1.21684 0 5 0
868 290 1 -0.8476 -16.9407 3.07115 1.00699 0 -4 0
869 290 2 0.4238 -17.3279 3.93543 0.685859 0 -4 0
71 24 2 0.4238 -17.1513 5.49758 4.3533 0 8 0
2286 762 2 0.4238 -18.6658 6.20154 1.22329 0 -7 0
2284 762 1 -0.8476 -17.8315 5.68149 1.40606 0 -7 0
2285 762 2 0.4238 -17.0539 6.30781 1.46242 0 -7 0
2848 950 1 -0.8476 -15.5866 6.98174 0.967169 0 5 0
393 131 2 0.4238 -18.4207 5.30083 2.91194 0 -5 0
391 131 1 -0.8476 -18.762 4.98124 3.79589 0 -5 0
392 131 2 0.4238 -18.6574 3.98845 3.85442 0 -5 0
1363 455 1 -0.8476 -9.35122 3.45102 0.948032 0 -4 0
354 118 2 0.4238 -11.4957 4.3717 4.87301 0 -3 0
1223 408 2 0.4238 -12.7094 9.18127 1.87027 0 -5 0
1365 455 2 0.4238 -9.12582 4.34967 0.571671 0 -4 0
1364 455 2 0.4238 -10.3102 3.24101 0.757806 0 -4 0
714 238 2 0.4238 -11.5285 7.06653 1.28641 0 -5 0
1222 408 1 -0.8476 -12.2129 8.62279 1.20572 0 -5 0
1224 408 2 0.4238 -11.2896 8.988 1.08706 0 -5 0
712 238 1 -0.8476 -11.1481 6.24841 0.855211 0 -5 0
713 238 2 0.4238 -11.8912 5.62889 0.60211 0 -5 0
2177 726 2 0.4238 -9.06695 7.27868 -0.0143825 0 1 0
2176 726 1 -0.8476 -8.50163 7.6094 0.741452 0 1 0
2178 726 2 0.4238 -8.97652 8.35278 1.21231 0 1 0
2604 868 2 0.4238 -10.8171 5.85066 2.55508 0 -8 0
2602 868 1 -0.8476 -10.8618 5.48398 3.48435 0 -8 0
2079 693 2 0.4238 -10.528 9.29455 3.09398 0 -1 0
2603 868 2 0.4238 -10.0642 4.9048 3.65285 0 -8 0
656 219 2 0.4238 -11.0923 6.99893 4.54018 0 -3 0
353 118 2 0.4238 -12.9625 3.65436 4.85037 0 -3 0
655 219 1 -0.8476 -11.0432 7.92126 4.92346 0 -3 0
1115 372 2 0.4238 -3.99428 5.26984 3.25904 0 1 0
1114 372 1 -0.8476 -3.05804 5.08382 2.96096 0 1 0
217 73 1 -0.8476 -5.17522 4.2416 1.0241 0 -8 0
219 73 2 0.4238 -5.75561 3.87946 1.75347 0 -8 0
2594 865 2 0.4238 -5.47219 6.25553 1.05916 0 -4 0
2595 865 2 0.4238 -6.7271 7.30042 1.05302 0 -4 0
2593 865 1 -0.8476 -5.75695 7.1908 1.26932 0 -4 0
2366 789 2 0.4238 -6.38229 7.94477 2.82366 0 0 0
1245 415 2 0.4238 -0.751159 5.51756 4.78828 0 0 0
1243 415 1 -0.8476 -0.98697 6.4707 4.59871 0 0 0
2365 789 1 -0.8476 -6.57609 8.7269 3.41587 0 0 0
1004 335 2 0.4238 -7.838 8.73958 4.86629 0 4 0
2679 893 2 0.4238 -4.88059 8.88622 1.25999 0 -3 0
1244 415 2 0.4238 -1.39835 6.88054 5.41284 0 0 0
1005 335 2 0.4238 -9.38626 8.29946 5.14165 0 4 0
1003 335 1 -0.8476 -8.64527 8.90452 5.43295 0 4 0
2960 987 2 0.4238 0.902458 1.85776 4.5162 0 -4 0
1116 372 2 0.4238 -2.54846 5.94257 2.90739 0 1 0
2963 988 2 0.4238 -0.817127 8.59676 2.12896 0 -4 0
2678 893 2 0.4238 -3.29543 9.22696 1.45439 0 -3 0
2962 988 1 -0.8476 -1.66858 8.19185 2.46223 0 -4 0
2964 988 2 0.4238 -1.45821 7.45731 3.10737 0 -4 0
2961 987 2 0.4238 0.0166467 2.51033 3.3095 0 -4 0
2959 987 1 -0.8476 0.297461 2.61291 4.26376 0 -4 0
2644 882 1 -0.8476 2.59302 4.09767 5.47392 0 -4 0
2646 882 2 0.4238 1.85232 3.51745 5.13524 0 -4 0
1449 483 2 0.4238 1.65936 5.96195 2.44003 0 6 0
1447 483 1 -0.8476 0.934862 6.61876 2.64909 0 6 0
1448 483 2 0.4238 0.371123 6.26658 3.39621 0 6 0
1868 623 2 0.4238 3.33459 4.82258 2.72745 0 4 0
1869 623 2 0.4238 2.93569 3.97619 1.38912 0 4 0
1867 623 1 -0.8476 2.62943 4.67685 2.03352 0 4 0
2075 692 2 0.4238 2.84207 7.43914 5.62009 0 -8 0
875 292 2 0.4238 4.09418 6.4201 1.66708 0 -4 0
2074 692 1 -0.8476 3.75167 7.65211 5.26333 0 -8 0
2076 692 2 0.4238 3.7295 8.53906 4.802 0 -8 0
874 292 1 -0.8476 4.58746 6.91288 0.950271 0 -4 0
876 292 2 0.4238 5.51499 6.54736 0.872255 0 -4 0
2304 768 2 0.4238 7.92417 7.61828 4.81739 0 -2 0
3132 1044 2 0.4238 3.83645 8.39701 0.685608 0 -7 0
2742 914 2 0.4238 5.35056 5.74701 4.43889 0 -9 0
2740 914 1 -0.8476 4.84552 4.96383 4.07617 0 -9 0
62 21 2 0.4238 11.8903 7.62722 4.92012 0 -3 0
2302 768 1 -0.8476 8.58686 7.67989 4.07104 0 -2 0
61 21 1 -0.8476 11.1163 8.22636 4.71539 0 -3 0
2471 824 2 0.4238 -24.3536 6.16196 4.57451 0 -5 0
691 231 1 -0.8476 -20.3418 10.2556 1.10984 0 -6 0
693 231 2 0.4238 -21.2504 10.597 0.869091 0 -6 0
2667 889 2 0.4238 -22.0046 11.4541 4.62388 0 -5 0
2666 889 2 0.4238 -20.6801 12.2238 4.05822 0 -5 0
2665 889 1 -0.8476 -21.0046 11.4632 4.62048 0 -5 0
3153 1051 2 0.4238 -24.5515 8.61202 4.34958 0 -6 0
3168 1056 2 0.4238 -19.9639 8.40534 0.902516 0 6 0
3166 1056 1 -0.8476 -19.7734 7.49141 1.26087 0 6 0
3167 1056 2 0.4238 -19.5654 7.55285 2.23708 0 6 0
2850 950 2 0.4238 -15.4094 7.66306 1.67737 0 5 0
692 231 2 0.4238 -19.9559 10.8206 1.83917 0 -6 0
3326 1109 2 0.4238 -20.6868 9.36233 3.94202 0 -8 0
3325 1109 1 -0.8476 -19.9475 8.68895 3.93959 0 -8 0
1162 388 1 -0.8476 -19.5693 12.9698 2.72246 0 -1 0
1779 593 2 0.4238 -18.643 11.8852 3.44964 0 -2 0
1163 388 2 0.4238 -19.2827 13.8782 3.0269 0 -1 0
2340 780 2 0.4238 -17.3547 9.16941 3.06722 0 0 0
1777 593 1 -0.8476 -18.0169 11.3619 4.02775 0 -2 0
2445 815 2 0.4238 -16.4954 11.8415 3.81249 0 -10 0
928 310 1 -0.8476 -15.4642 14.9391 4.11862 0 -3 0
929 310 2 0.4238 -15.2626 14.6393 5.0511 0 -3 0
2849 950 2 0.4238 -15.5003 7.40851 0.0669115 0 5 0
2077 693 1 -0.8476 -9.87789 9.69558 2.44858 0 -1 0
2078 693 2 0.4238 -10.0483 10.6779 2.37087 0 -1 0
818 273 2 0.4238 -12.5595 11.2303 2.97613 0 6 0
817 273 1 -0.8476 -13.3308 10.6323 2.75814 0 6 0
1068 356 2 0.4238 -10.2331 11.7886 4.26423 0 -2 0
1066 356 1 -0.8476 -10.9211 12.0091 3.5728 0 -2 0
819 273 2 0.4238 -14.1833 11.0712 3.04206 0 6 0
1067 356 2 0.4238 -10.924 12.9955 3.40822 0 -2 0
3022 1008 1 -0.8476 -10.4304 14.7148 3.89144 0 -2 0
2444 815 2 0.4238 -15.5056 13.1375 3.89674 0 -10 0
2443 815 1 -0.8476 -15.5554 12.1418 3.97423 0 -10 0
930 310 2 0.4238 -15.3482 15.9303 4.0547 0 -3 0
1817 606 2 0.4238 -3.00998 9.36259 4.4857 0 -7 0
2571 857 2 0.4238 -8.02637 10.4245 2.03604 0 6 0
2569 857 1 -0.8476 -7.15647 10.9013 1.90978 0 6 0
2570 857 2 0.4238 -7.11704 11.6906 2.52249 0 6 0
213 71 2 0.4238 -7.19182 13.8784 3.78943 0 -13 0
211 71 1 -0.8476 -7.17588 12.9119 3.53327 0 -13 0
2367 789 2 0.4238 -6.54923 9.56834 2.87621 0 0 0
212 71 2 0.4238 -6.89352 12.3631 4.32013 0 -13 0
2043 681 2 0.4238 -4.77088 13.8606 3.51626 0 0 0
1682 561 2 0.4238 -5.36495 10.6574 5.26172 0 -2 0
2042 681 2 0.4238 -3.53861 13.4281 4.49662 0 0 0
2041 681 1 -0.8476 -4.23259 14.1252 4.3164 0 0 0
1816 606 1 -0.8476 -3.47048 10.1919 4.16905 0 -7 0
1818 606 2 0.4238 -3.89547 10.0185 3.2806 0 -7 0
3440 1147 2 0.4238 -3.54504 11.4254 0.975415 0 -1 0
3439 1147 1 -0.8476 -4.05537 12.2811 1.0609 0 -1 0
2677 893 1 -0.8476 -4.22646 9.55985 1.60395 0 -3 0
1979 660 2 0.4238 -0.921461 10.9237 4.67755 0 4 0
1978 660 1 -0.8476 -0.179953 10.3361 4.35356 0 4 0
1980 660 2 0.4238 -0.466664 9.86784 3.51779 0 4 0
3231 1077 2 0.4238 0.481767 8.45224 5.23321 0 -4 0
3441 1147 2 0.4238 -5.00727 12.0799 1.29191 0 -1 0
2209 737 1 -0.8476 0.634148 8.81638 1.27144 0 0 0
2211 737 2 0.4238 0.72481 7.92272 1.71096 0 0 0
2210 737 2 0.4238 1.44199 8.9951 0.709807 0 0 0
2706 902 2 0.4238 1.63489 12.4751 1.12391 0 0 0
386 129 2 0.4238 -1.60377 12.5115 4.18535 0 -7 0
2705 902 2 0.4238 0.939488 10.9985 1.17734 0 0 0
2704 902 1 -0.8476 0.84232 11.957 1.44548 0 0 0
142 48 1 -0.8476 -0.655172 13.4688 3.23695 0 2 0
356 119 2 0.4238 -2.65036 13.9533 1.06179 0 -11 0
355 119 1 -0.8476 -2.24814 14.6596 1.64437 0 -11 0
143 48 2 0.4238 -1.32209 13.8943 2.62522 0 2 0
144 48 2 0.4238 0.0261507 12.9757 2.69606 0 2 0
316 106 1 -0.8476 2.86022 13.908 1.10185 0 -3 0
3130 1044 1 -0.8476 3.50304 9.31654 0.893726 0 -7 0
3131 1044 2 0.4238 3.25028 9.36877 1.85979 0 -7 0
1500 500 2 0.4238 4.57222 10.7041 0.941864 0 0 0
3321 1107 2 0.4238 3.22631 10.7287 3.46935 0 -6 0
1785 595 2 0.4238 5.35109 9.38009 3.55048 0 1 0
2766 922 2 0.4238 7.44262 11.6527 1.31785 0 -7 0
1499 500 2 0.4238 5.08315 12.2523 1.03486 0 0 0
1498 500 1 -0.8476 5.1406 11.3469 1.45544 0 0 0
3319 1107 1 -0.8476 3.01666 9.76356 3.62592 0 -6 0
3320 1107 2 0.4238 2.02979 9.65144 3.74214 0 -6 0
1783 595 1 -0.8476 5.90799 10.2088 3.60632 0 1 0
1784 595 2 0.4238 5.79234 10.7451 2.77024 0 1 0
2307 769 2 0.4238 7.39917 10.9762 4.58811 0 3 0
1423 475 1 -0.8476 5.42136 14.5874 0.862309 0 -2 0
1425 475 2 0.4238 5.8779 14.7428 -0.013786 0 -2 0
317 106 2 0.4238 3.78856 14.192 0.86199 0 -3 0
2764 922 1 -0.8476 8.39018 11.9702 1.35411 0 -7 0
2303 768 2 0.4238 9.50215 7.81997 4.44871 0 -2 0
2878 960 1 -0.8476 9.76755 9.87773 2.5375 0 0 0
2879 960 2 0.4238 8.96059 9.3362 2.77325 0 0 0
2765 922 2 0.4238 8.92301 11.3625 1.94303 0 -7 0
2880 960 2 0.4238 10.5931 9.34866 2.73404 0 0 0
63 21 2 0.4238 11.1419 9.02239 5.3201 0 -3 0
893 298 2 0.4238 9.06657 13.529 1.34387 0 2 0
1164 388 2 0.4238 -20.3547 13.0561 2.10949 0 -1 0
302 101 2 0.4238 -23.6163 13.5762 4.19702 0 1 0
301 101 1 -0.8476 -23.6552 14.5492 4.42473 0 1 0
259 87 1 -0.8476 -22.2322 16.9452 4.74576 0 -4 0
261 87 2 0.4238 -22.6264 16.1072 4.36851 0 -4 0
303 101 2 0.4238 -24.1712 14.6727 5.27236 0 1 0
397 133 1 -0.8476 -15.5287 -19.1634 5.40307 0 1 0
3271 1091 1 -0.8476 -18.2113 15.03 3.61472 0 -3 0
3272 1091 2 0.4238 -17.2511 14.7568 3.67301 0 -3 0
3273 1091 2 0.4238 -18.2899 15.8545 3.05439 0 -3 0
2668 890 1 -0.8476 -19.9987 15.2706 5.57434 0 2 0
27 9 2 0.4238 -15.1474 17.7579 5.36679 0 4 0
2670 890 2 0.4238 -19.2105 15.2568 4.95903 0 2 0
2669 890 2 0.4238 -20.7524 15.7636 5.13958 0 2 0
2779 927 1 -0.8476 -18.2187 17.3949 1.87471 0 -4 0
2781 927 2 0.4238 -18.2116 18.128 2.55479 0 -4 0
2780 927 2 0.4238 -18.0148 17.7751 0.972592 0 -4 0
3316 1106 1 -0.8476 -17.1652 19.6674 3.57393 0 1 0
26 9 2 0.4238 -15.955 18.3358 4.07047 0 4 0
25 9 1 -0.8476 -15.3937 17.5826 4.41358 0 4 0
633 211 2 0.4238 -20.8445 18.252 4.70048 0 -9 0
631 211 1 -0.8476 -20.197 18.9511 4.39709 0 -9 0
632 211 2 0.4238 -19.2721 18.6922 4.67552 0 -9 0
3449 1150 2 0.4238 -14.3731 19.1958 0.462634 0 -7 0
399 133 2 0.4238 -14.9616 -19.7345 5.99656 0 1 0
3450 1150 2 0.4238 -13.1753 18.8894 1.52936 0 -7 0
3448 1150 1 -0.8476 -13.5604 19.5716 0.907992 0 -7 0
1934 645 2 0.4238 -9.52117 -19.7823 3.3438 0 -6 0
1335 445 2 0.4238 -11.7794 18.4946 3.16956 0 1 0
1334 445 2 0.4238 -13.1174 17.5672 3.29748 0 1 0
225 75 2 0.4238 -8.12034 16.3609 3.66411 0 5 0
3023 1008 2 0.4238 -10.5637 15.604 3.45384 0 -2 0
3024 1008 2 0.4238 -9.58997 14.7324 4.43301 0 -2 0
1333 445 1 -0.8476 -12.2937 17.7421 2.75811 0 1 0
1442 481 2 0.4238 -9.64919 17.9625 3.28523 0 3 0
1935 645 2 0.4238 -11.0608 -19.5284 3.82529 0 -6 0
1933 645 1 -0.8476 -10.3247 19.7974 3.76534 0 -7 0
1441 481 1 -0.8476 -9.04099 17.3792 2.74685 0 3 0
1443 481 2 0.4238 -8.79207 17.849 1.89992 0 3 0
1718 573 2 0.4238 -9.90157 19.197 5.67344 0 -4 0
2952 984 2 0.4238 -3.84776 18.4326 0.847612 1 -5 0
2950 984 1 -0.8476 -3.21328 17.6918 1.06799 1 -5 0
223 75 1 -0.8476 -7.45501 15.7721 4.12319 0 5 0
224 75 2 0.4238 -6.59484 16.2687 4.23944 0 5 0
1556 519 2 0.4238 -4.11903 15.9646 4.14966 0 -2 0
1555 519 1 -0.8476 -4.43679 16.8108 3.72183 0 -2 0
1557 519 2 0.4238 -4.10556 16.8525 2.7792 0 -2 0
2315 772 2 0.4238 -7.02934 17.8005 7.71064 0 -2 0
2316 772 2 0.4238 -7.80226 18.5539 6.48528 0 -2 0
2314 772 1 -0.8476 -6.9122 18.3877 6.90972 0 -2 0
2268 756 2 0.4238 -3.29955 14.8978 5.623 0 1 0
463 155 1 -0.8476 -4.80029 18.7891 5.34775 0 -3 0
465 155 2 0.4238 -4.67856 18.025 4.71422 0 -3 0
208 70 1 -0.8476 -2.63505 -18.7285 2.8558 0 -3 0
464 155 2 0.4238 -5.47411 18.5409 6.04372 0 -3 0
2951 984 2 0.4238 -2.30631 18.0723 1.24851 1 -5 0
510 170 2 0.4238 -0.241308 18.7711 2.10464 0 -2 0
508 170 1 -0.8476 -1.16996 19.014 2.38504 0 -2 0
509 170 2 0.4238 -1.25621 18.9123 3.37612 0 -2 0
210 70 2 0.4238 -2.12156 -19.5443 2.58969 0 -3 0
845 282 2 0.4238 -0.361778 14.214 4.60289 0 -5 0
844 282 1 -0.8476 -0.263059 14.8796 5.34263 0 -5 0
846 282 2 0.4238 -1.14198 14.997 5.80495 0 -5 0
357 119 2 0.4238 -2.61439 15.5535 1.38578 0 -11 0
2122 708 1 -0.8476 1.38564 18.3236 1.70486 0 -2 0
2123 708 2 0.4238 1.91846 18.4273 0.865027 0 -2 0
2124 708 2 0.4238 1.92602 18.6418 2.48384 0 -2 0
1673 558 2 0.4238 0.788736 16.5543 1.29105 0 -5 0
1672 558 1 -0.8476 0.733082 15.6647 0.837896 0 -5 0
1674 558 2 0.4238 -0.180558 15.2801 0.969517 0 -5 0
1451 484 2 0.4238 0.300353 17.8902 4.32856 0 2 0
1452 484 2 0.4238 0.688248 16.422 4.92909 0 2 0
1450 484 1 -0.8476 1.05387 17.2974 4.61284 0 2 0
2166 722 2 0.4238 2.67645 13.0244 3.04705 0 -1 0
318 106 2 0.4238 2.21959 14.6442 0.88374 0 -3 0
1424 475 2 0.4238 5.93031 15.0477 1.58961 0 -2 0
729 243 2 0.4238 4.91054 18.1631 5.10472 0 2 0
3330 1110 2 0.4238 4.74745 16.7935 3.23649 0 3 0
3329 1110 2 0.4238 5.57921 18.0743 2.65831 0 3 0